/*--------------------------------*- C++ -*----------------------------------*\
| =========                 |                                                 |
| \\      /  F ield         | OpenFOAM: The Open Source CFD Toolbox           |
|  \\    /   O peration     | Version:  5.0                                   |
|   \\  /    A nd           | Web:      www.OpenFOAM.org                      |
|    \\/     M anipulation  |                                                 |
\*---------------------------------------------------------------------------*/
FoamFile
{
    version     2.0;
    format      ascii;
    class       volScalarField;
    location    "7";
    object      k;
}
// * * * * * * * * * * * * * * * * * * * * * * * * * * * * * * * * * * * * * //

dimensions      [0 2 -2 0 0 0 0];

internalField   nonuniform List<scalar> 
24400
(
3.06935e-06
2.4513e-06
3.34567e-06
4.52003e-06
5.6769e-06
6.7726e-06
7.75605e-06
8.53675e-06
9.02015e-06
9.06063e-06
8.8129e-06
8.11763e-06
6.86156e-06
5.38323e-06
3.94747e-06
2.7921e-06
2.06001e-06
1.68203e-06
1.4416e-06
1.24758e-06
3.56321e-06
2.92642e-06
4.00254e-06
5.27955e-06
6.51185e-06
7.63072e-06
8.55037e-06
9.15551e-06
9.34391e-06
9.13992e-06
8.52745e-06
7.3221e-06
5.83794e-06
4.33759e-06
3.06882e-06
2.19777e-06
1.74664e-06
1.49802e-06
1.28345e-06
1.08966e-06
4.22328e-06
3.68096e-06
4.82007e-06
6.14463e-06
7.39569e-06
8.46602e-06
9.2384e-06
9.5892e-06
9.47594e-06
8.9906e-06
7.88529e-06
6.39375e-06
4.82961e-06
3.4459e-06
2.42681e-06
1.84914e-06
1.57961e-06
1.35694e-06
1.14307e-06
9.44112e-07
4.99908e-06
4.61789e-06
5.7488e-06
7.06649e-06
8.27232e-06
9.21926e-06
9.76986e-06
9.81935e-06
9.47967e-06
8.52752e-06
7.0439e-06
5.4205e-06
3.92141e-06
2.74469e-06
2.00591e-06
1.66529e-06
1.44616e-06
1.2145e-06
1.00443e-06
8.24013e-07
5.84816e-06
5.64222e-06
6.7286e-06
7.98906e-06
9.08655e-06
9.84387e-06
1.01181e-05
9.91176e-06
9.1974e-06
7.78492e-06
6.12385e-06
4.51109e-06
3.17327e-06
2.24855e-06
1.77905e-06
1.54648e-06
1.31498e-06
1.0783e-06
8.85207e-07
7.25337e-07
6.73542e-06
6.68098e-06
7.70009e-06
8.85797e-06
9.79307e-06
1.03126e-05
1.0301e-05
9.84099e-06
8.63379e-06
6.9543e-06
5.23077e-06
3.72626e-06
2.60377e-06
1.94785e-06
1.66495e-06
1.42961e-06
1.17989e-06
9.53122e-07
7.8384e-07
6.47733e-07
7.61509e-06
7.67498e-06
8.61203e-06
9.62886e-06
1.03635e-05
1.062e-05
1.03741e-05
9.49705e-06
7.88566e-06
6.08533e-06
4.4172e-06
3.09049e-06
2.21492e-06
1.80518e-06
1.56468e-06
1.30054e-06
1.05006e-06
8.45615e-07
7.02831e-07
5.8808e-07
8.4427e-06
8.58179e-06
9.42318e-06
1.02732e-05
1.07894e-05
1.07872e-05
1.02728e-05
8.91708e-06
7.088e-06
5.26753e-06
3.72845e-06
2.61654e-06
1.99889e-06
1.72207e-06
1.44835e-06
1.16903e-06
9.34313e-07
7.57387e-07
6.38876e-07
5.42148e-07
9.18451e-06
9.37306e-06
1.01086e-05
1.07811e-05
1.10796e-05
1.08484e-05
9.93415e-06
8.20401e-06
6.28324e-06
4.53556e-06
3.1761e-06
2.3033e-06
1.9055e-06
1.62411e-06
1.31814e-06
1.04549e-06
8.36364e-07
6.86942e-07
5.89054e-07
5.06947e-07
9.82365e-06
1.00344e-05
1.06607e-05
1.11593e-05
1.12321e-05
1.07625e-05
9.40204e-06
7.46686e-06
5.53506e-06
3.91833e-06
2.76759e-06
2.14131e-06
1.83025e-06
1.50312e-06
1.1885e-06
9.37415e-07
7.5654e-07
6.31544e-07
5.50152e-07
4.79751e-07
1.03524e-05
1.05632e-05
1.10868e-05
1.14306e-05
1.12893e-05
1.04975e-05
8.75957e-06
6.72943e-06
4.86652e-06
3.42293e-06
2.50219e-06
2.07054e-06
1.7284e-06
1.37141e-06
1.06951e-06
8.46769e-07
6.92651e-07
5.88072e-07
5.19603e-07
4.58721e-07
1.07693e-05
1.09653e-05
1.14056e-05
1.1576e-05
1.12483e-05
1.00707e-05
8.09828e-06
6.04258e-06
4.29972e-06
3.0548e-06
2.36811e-06
1.99494e-06
1.60284e-06
1.24273e-06
9.66234e-07
7.72744e-07
6.41945e-07
5.53847e-07
4.95412e-07
4.42446e-07
1.10806e-05
1.12516e-05
1.16286e-05
1.16287e-05
1.10815e-05
9.54152e-06
7.4346e-06
5.42384e-06
3.83999e-06
2.81304e-06
2.30547e-06
1.88971e-06
1.46958e-06
1.12602e-06
8.79713e-07
7.13098e-07
6.0169e-07
5.26682e-07
4.76101e-07
4.29934e-07
1.1299e-05
1.14366e-05
1.17472e-05
1.16262e-05
1.08071e-05
8.96269e-06
6.80407e-06
4.89163e-06
3.49172e-06
2.68649e-06
2.2313e-06
1.7619e-06
1.34052e-06
1.02464e-06
8.08576e-07
6.65222e-07
5.69563e-07
5.04914e-07
4.60584e-07
4.20432e-07
1.1442e-05
1.15413e-05
1.17874e-05
1.15327e-05
1.04292e-05
8.38632e-06
6.23126e-06
4.45267e-06
3.25399e-06
2.6262e-06
2.12732e-06
1.62715e-06
1.22334e-06
9.39156e-07
7.50707e-07
6.26741e-07
5.43717e-07
4.87296e-07
4.48059e-07
4.13374e-07
1.15294e-05
1.15871e-05
1.17791e-05
1.13737e-05
9.99119e-06
7.82987e-06
5.72759e-06
4.10935e-06
3.11892e-06
2.56087e-06
2.00131e-06
1.49635e-06
1.12084e-06
8.68224e-07
7.03777e-07
5.95657e-07
5.22744e-07
4.72915e-07
4.37925e-07
4.08319e-07
1.15818e-05
1.1598e-05
1.17187e-05
1.11594e-05
9.52825e-06
7.30903e-06
5.30121e-06
3.86144e-06
3.05448e-06
2.46642e-06
1.86639e-06
1.37606e-06
1.03329e-06
8.09798e-07
6.6559e-07
5.703e-07
5.05513e-07
4.61031e-07
4.29669e-07
4.04531e-07
1.16175e-05
1.15927e-05
1.16274e-05
1.09031e-05
9.06455e-06
6.84104e-06
4.95576e-06
3.70481e-06
3.00655e-06
2.34983e-06
1.73355e-06
1.26942e-06
9.59735e-07
7.61901e-07
6.34425e-07
5.49474e-07
4.91241e-07
4.51132e-07
4.22911e-07
4.01782e-07
1.16519e-05
1.15869e-05
1.15194e-05
1.06121e-05
8.62144e-06
6.43432e-06
4.6919e-06
3.62289e-06
2.93435e-06
2.21876e-06
1.6077e-06
1.17611e-06
8.97859e-07
7.22149e-07
6.08471e-07
5.31939e-07
4.79096e-07
4.42647e-07
4.17221e-07
3.99678e-07
1.16962e-05
1.15887e-05
1.13954e-05
1.0298e-05
8.22372e-06
6.09506e-06
4.50622e-06
3.58568e-06
2.83989e-06
2.08676e-06
1.49472e-06
1.09719e-06
8.47133e-07
6.89929e-07
5.87425e-07
5.17663e-07
4.69188e-07
4.3575e-07
4.12767e-07
3.9831e-07
3.68848e-06
3.82361e-06
4.2515e-06
4.99806e-06
6.07864e-06
7.42127e-06
8.80153e-06
1.01103e-05
1.14508e-05
1.29069e-05
1.44895e-05
1.61612e-05
1.78326e-05
1.93749e-05
2.0661e-05
2.15434e-05
2.18924e-05
2.16886e-05
2.09023e-05
1.94256e-05
3.67707e-06
3.80539e-06
4.16684e-06
4.76006e-06
5.56622e-06
6.66991e-06
8.13098e-06
9.66456e-06
1.11879e-05
1.27275e-05
1.43119e-05
1.59098e-05
1.74475e-05
1.88217e-05
1.99273e-05
2.06582e-05
2.09526e-05
2.07975e-05
2.01669e-05
1.87159e-05
3.64115e-06
3.75329e-06
4.04411e-06
4.47875e-06
4.99564e-06
5.75937e-06
7.33897e-06
9.14726e-06
1.08593e-05
1.24814e-05
1.40583e-05
1.55911e-05
1.70351e-05
1.83205e-05
1.93766e-05
2.01442e-05
2.05898e-05
2.06203e-05
2.02138e-05
1.89525e-05
3.58213e-06
3.67519e-06
3.89916e-06
4.19462e-06
4.48195e-06
4.95896e-06
6.61167e-06
8.63381e-06
1.04921e-05
1.21745e-05
1.37452e-05
1.52362e-05
1.66357e-05
1.79091e-05
1.90188e-05
1.9931e-05
2.06032e-05
2.08652e-05
2.06968e-05
1.96971e-05
3.50541e-06
3.58015e-06
3.74995e-06
3.94373e-06
4.10695e-06
4.48866e-06
6.08115e-06
8.1596e-06
1.00865e-05
1.1803e-05
1.33718e-05
1.48448e-05
1.62393e-05
1.75498e-05
1.87619e-05
1.98448e-05
2.07296e-05
2.11218e-05
2.09902e-05
1.99994e-05
3.41646e-06
3.47601e-06
3.60846e-06
3.7409e-06
3.86981e-06
4.28059e-06
5.73221e-06
7.7229e-06
9.6357e-06
1.13541e-05
1.29181e-05
1.43856e-05
1.57925e-05
1.71526e-05
1.84609e-05
1.9673e-05
2.06819e-05
2.10996e-05
2.0957e-05
1.98848e-05
3.3205e-06
3.36873e-06
3.47884e-06
3.58227e-06
3.7267e-06
4.18887e-06
5.48827e-06
7.30244e-06
9.12858e-06
1.08093e-05
1.23525e-05
1.38088e-05
1.52207e-05
1.66092e-05
1.79692e-05
1.92349e-05
2.02604e-05
2.05775e-05
2.03241e-05
1.89553e-05
3.22181e-06
3.26235e-06
3.3611e-06
3.45648e-06
3.63458e-06
4.13096e-06
5.29148e-06
6.89045e-06
8.56237e-06
1.0156e-05
1.16463e-05
1.30666e-05
1.44546e-05
1.58286e-05
1.71761e-05
1.84095e-05
1.93188e-05
1.94472e-05
1.90367e-05
1.72681e-05
3.12347e-06
3.15971e-06
3.25309e-06
3.3526e-06
3.56534e-06
4.0767e-06
5.10811e-06
6.49264e-06
7.96685e-06
9.40717e-06
1.0795e-05
1.21387e-05
1.34612e-05
1.47712e-05
1.60448e-05
1.71734e-05
1.78492e-05
1.78204e-05
1.72178e-05
1.50372e-05
3.02701e-06
3.06034e-06
3.15168e-06
3.26344e-06
3.50519e-06
4.01787e-06
4.92644e-06
6.1114e-06
7.38101e-06
8.62431e-06
9.84054e-06
1.10569e-05
1.22718e-05
1.3479e-05
1.46394e-05
1.5615e-05
1.60122e-05
1.58755e-05
1.50905e-05
1.25885e-05
2.93301e-06
2.96263e-06
3.05333e-06
3.18169e-06
3.44908e-06
3.95204e-06
4.7507e-06
5.75671e-06
6.82946e-06
7.87522e-06
8.87804e-06
9.91641e-06
1.09944e-05
1.20852e-05
1.31251e-05
1.39198e-05
1.40794e-05
1.38493e-05
1.29052e-05
1.01851e-05
2.84189e-06
2.86502e-06
2.9553e-06
3.1042e-06
3.39663e-06
3.88631e-06
4.5922e-06
5.44577e-06
6.34403e-06
7.21173e-06
8.02599e-06
8.86229e-06
9.80105e-06
1.07925e-05
1.17213e-05
1.23078e-05
1.23139e-05
1.19478e-05
1.08014e-05
8.00599e-06
2.75454e-06
2.76644e-06
2.85624e-06
3.03172e-06
3.3532e-06
3.83493e-06
4.46989e-06
5.20458e-06
5.96587e-06
6.69777e-06
7.37491e-06
8.04983e-06
8.87575e-06
9.80142e-06
1.06039e-05
1.09479e-05
1.08365e-05
1.02418e-05
8.71697e-06
6.23148e-06
2.67374e-06
2.66749e-06
2.75752e-06
2.96953e-06
3.33101e-06
3.81851e-06
4.41057e-06
5.06817e-06
5.7442e-06
6.40116e-06
7.0255e-06
7.6454e-06
8.41014e-06
9.21844e-06
9.81185e-06
9.89308e-06
9.60491e-06
8.58421e-06
6.87279e-06
4.75086e-06
2.60079e-06
2.56679e-06
2.66038e-06
2.92759e-06
3.34626e-06
3.85843e-06
4.44575e-06
5.08024e-06
5.73149e-06
6.37749e-06
6.99717e-06
7.59365e-06
8.30594e-06
8.94192e-06
9.21264e-06
9.08144e-06
8.44288e-06
6.92434e-06
5.26042e-06
3.57685e-06
2.54148e-06
2.46638e-06
2.57159e-06
2.92495e-06
3.42174e-06
3.98883e-06
4.60955e-06
5.27296e-06
5.95909e-06
6.63584e-06
7.26868e-06
7.83106e-06
8.40629e-06
8.75875e-06
8.71065e-06
8.25866e-06
7.05248e-06
5.41682e-06
3.95254e-06
2.72198e-06
2.50594e-06
2.37067e-06
2.50742e-06
2.98386e-06
3.59542e-06
4.25351e-06
4.95058e-06
5.68195e-06
6.42281e-06
7.12824e-06
7.73985e-06
8.20952e-06
8.51254e-06
8.51061e-06
8.16759e-06
7.17481e-06
5.63005e-06
4.12173e-06
2.96479e-06
2.14839e-06
2.51094e-06
2.28805e-06
2.50142e-06
3.14587e-06
3.89803e-06
4.67235e-06
5.47032e-06
6.28079e-06
7.06368e-06
7.74673e-06
8.25619e-06
8.48963e-06
8.47999e-06
8.18325e-06
7.315e-06
5.86377e-06
4.35598e-06
3.11277e-06
2.2891e-06
1.77632e-06
2.58017e-06
2.23614e-06
2.6025e-06
3.44652e-06
4.34598e-06
5.24691e-06
6.14603e-06
7.01293e-06
7.78292e-06
8.35499e-06
8.63178e-06
8.58583e-06
8.30417e-06
7.51129e-06
6.13909e-06
4.64325e-06
3.32839e-06
2.40405e-06
1.87201e-06
1.54221e-06
2.75086e-06
2.25878e-06
2.87538e-06
3.90222e-06
4.94255e-06
5.95865e-06
6.92905e-06
7.7944e-06
8.46733e-06
8.82719e-06
8.78866e-06
8.51916e-06
7.77715e-06
6.46779e-06
4.98366e-06
3.60302e-06
2.56717e-06
1.94647e-06
1.61896e-06
1.37461e-06
1.74993e-05
1.59254e-05
1.50088e-05
1.53349e-05
1.81158e-05
2.50532e-05
3.69103e-05
5.34321e-05
6.98945e-05
8.33111e-05
8.37778e-05
7.61607e-05
7.06155e-05
5.97666e-05
4.54493e-05
3.35957e-05
2.69307e-05
2.40557e-05
2.31907e-05
2.21532e-05
1.99956e-05
1.67454e-05
1.30177e-05
9.68458e-06
7.19979e-06
5.75731e-06
5.30159e-06
5.48661e-06
6.87362e-06
8.53208e-06
9.63521e-06
1.00583e-05
1.16614e-05
2.57083e-05
4.83352e-05
5.90454e-05
5.89118e-05
5.33697e-05
4.38867e-05
3.84345e-05
3.86041e-05
4.39215e-05
4.86899e-05
4.90235e-05
4.19669e-05
3.04789e-05
2.04575e-05
1.33309e-05
9.14743e-06
7.0791e-06
6.0446e-06
5.32651e-06
4.86383e-06
5.0206e-06
9.38107e-06
1.8772e-05
2.35182e-05
2.4212e-05
2.42868e-05
2.48452e-05
2.94516e-05
4.39652e-05
5.73618e-05
6.34049e-05
6.19107e-05
4.8491e-05
3.31215e-05
2.09548e-05
1.17713e-05
5.59603e-06
3.28416e-06
4.26424e-06
8.69668e-06
1.14021e-05
1.31664e-05
1.57369e-05
2.3016e-05
3.96581e-05
5.57536e-05
6.55579e-05
6.74455e-05
5.99645e-05
4.11893e-05
2.50212e-05
1.38582e-05
8.47052e-06
7.43941e-06
8.23729e-06
1.01849e-05
1.34559e-05
2.23063e-05
3.43625e-05
4.45035e-05
4.95386e-05
4.95721e-05
4.13243e-05
2.80092e-05
1.80676e-05
1.20808e-05
9.64026e-06
9.8038e-06
1.23907e-05
2.01745e-05
2.95923e-05
3.69355e-05
4.01556e-05
3.96357e-05
3.2249e-05
2.23014e-05
1.51403e-05
1.1394e-05
1.11669e-05
1.31981e-05
1.96449e-05
2.61454e-05
2.98778e-05
3.04709e-05
2.74442e-05
1.96647e-05
1.40027e-05
1.19127e-05
1.28909e-05
1.76836e-05
2.32072e-05
2.60582e-05
2.62608e-05
2.31317e-05
1.6397e-05
1.46561e-05
1.58944e-05
1.65056e-05
1.45184e-05
1.28464e-05
1.18223e-05
1.18623e-05
1.3937e-05
2.20166e-05
3.82328e-05
6.10238e-05
8.33936e-05
9.89405e-05
9.86027e-05
8.72087e-05
7.4455e-05
5.72788e-05
4.04383e-05
2.88798e-05
2.30788e-05
2.06866e-05
1.9605e-05
1.80818e-05
1.5675e-05
1.26472e-05
9.74395e-06
7.46309e-06
6.06342e-06
5.53958e-06
5.66721e-06
6.91723e-06
8.34282e-06
8.95946e-06
8.83838e-06
1.07424e-05
2.71536e-05
4.81305e-05
5.511e-05
5.45182e-05
5.01931e-05
4.3217e-05
4.06327e-05
4.30886e-05
5.10191e-05
5.61341e-05
5.5758e-05
4.60318e-05
3.24961e-05
2.11782e-05
1.34879e-05
9.1548e-06
7.15255e-06
6.3043e-06
5.76011e-06
5.37838e-06
5.43325e-06
8.87566e-06
1.83093e-05
2.36007e-05
2.43526e-05
2.39176e-05
2.40558e-05
2.70489e-05
3.87063e-05
5.08261e-05
5.6666e-05
5.59462e-05
4.49207e-05
3.12461e-05
1.99936e-05
1.11624e-05
5.36703e-06
3.34367e-06
4.25958e-06
8.4463e-06
1.1053e-05
1.30023e-05
1.60044e-05
2.45697e-05
4.26731e-05
5.98567e-05
6.99856e-05
7.17709e-05
6.34359e-05
4.3484e-05
2.64512e-05
1.45518e-05
8.70149e-06
7.65245e-06
8.65855e-06
1.04191e-05
1.3143e-05
2.0803e-05
3.19424e-05
4.14944e-05
4.63247e-05
4.64286e-05
3.88824e-05
2.6528e-05
1.73205e-05
1.1726e-05
9.38902e-06
9.51716e-06
1.25652e-05
2.14246e-05
3.1446e-05
3.90892e-05
4.23711e-05
4.17419e-05
3.38238e-05
2.33523e-05
1.57722e-05
1.17659e-05
1.14586e-05
1.29831e-05
1.84888e-05
2.47203e-05
2.83578e-05
2.89725e-05
2.62059e-05
1.88529e-05
1.35696e-05
1.17089e-05
1.2924e-05
1.84315e-05
2.41842e-05
2.71042e-05
2.73103e-05
2.4143e-05
1.69827e-05
1.48982e-05
1.57708e-05
1.65905e-05
1.44425e-05
1.24756e-05
1.078e-05
9.86155e-06
1.00351e-05
1.22476e-05
2.15169e-05
4.25562e-05
7.12893e-05
9.87938e-05
0.000115451
0.000111327
9.44431e-05
7.43866e-05
5.27105e-05
3.50913e-05
2.44936e-05
1.95604e-05
1.74518e-05
1.61107e-05
1.43509e-05
1.20557e-05
9.61702e-06
7.62163e-06
6.32085e-06
5.78995e-06
5.88216e-06
7.0364e-06
8.0849e-06
8.15232e-06
7.35222e-06
9.54598e-06
2.71588e-05
4.54771e-05
4.95893e-05
4.96936e-05
4.78379e-05
4.35993e-05
4.32713e-05
4.88982e-05
5.87842e-05
6.41145e-05
6.27235e-05
5.0076e-05
3.44322e-05
2.18461e-05
1.36336e-05
9.18382e-06
7.24797e-06
6.52511e-06
6.01884e-06
5.61857e-06
5.59077e-06
8.11045e-06
1.7419e-05
2.34849e-05
2.45118e-05
2.35981e-05
2.33003e-05
2.49573e-05
3.39132e-05
4.45811e-05
5.03312e-05
5.02143e-05
4.15401e-05
2.94194e-05
1.90138e-05
1.06351e-05
5.28587e-06
3.48436e-06
4.34055e-06
8.1949e-06
1.06688e-05
1.28187e-05
1.62174e-05
2.6e-05
4.54823e-05
6.37176e-05
7.43281e-05
7.58941e-05
6.6864e-05
4.57758e-05
2.79494e-05
1.53801e-05
9.05489e-06
7.9904e-06
9.06499e-06
1.05945e-05
1.28477e-05
1.93383e-05
2.95381e-05
3.84801e-05
4.30991e-05
4.32841e-05
3.6529e-05
2.51672e-05
1.66492e-05
1.14161e-05
9.19871e-06
9.30044e-06
1.27765e-05
2.26392e-05
3.32649e-05
4.1186e-05
4.45096e-05
4.37825e-05
3.53898e-05
2.44367e-05
1.64714e-05
1.21931e-05
1.17472e-05
1.28433e-05
1.7367e-05
2.33281e-05
2.68804e-05
2.75217e-05
2.50193e-05
1.81003e-05
1.31886e-05
1.15408e-05
1.30047e-05
1.91935e-05
2.51619e-05
2.81476e-05
2.83592e-05
2.51906e-05
1.76344e-05
1.51471e-05
1.5674e-05
1.72798e-05
1.49461e-05
1.26969e-05
1.06613e-05
9.1461e-06
8.62248e-06
9.22134e-06
1.2381e-05
2.42284e-05
5.08433e-05
8.68291e-05
0.000116658
0.000131752
0.000120729
9.70214e-05
7.10834e-05
4.71164e-05
3.00452e-05
2.06737e-05
1.64629e-05
1.44943e-05
1.30017e-05
1.1275e-05
9.36472e-06
7.67344e-06
6.52465e-06
6.03429e-06
6.12816e-06
7.1704e-06
7.78755e-06
7.50689e-06
6.32051e-06
8.47533e-06
2.59395e-05
4.04751e-05
4.27449e-05
4.52986e-05
4.59132e-05
4.48378e-05
4.63186e-05
5.57153e-05
6.72896e-05
7.23233e-05
6.97489e-05
5.39783e-05
3.62489e-05
2.24452e-05
1.37654e-05
9.22708e-06
7.32212e-06
6.65637e-06
6.1608e-06
5.70477e-06
5.63763e-06
7.37313e-06
1.60394e-05
2.30669e-05
2.45738e-05
2.3534e-05
2.25389e-05
2.33257e-05
2.95904e-05
3.88892e-05
4.43905e-05
4.47792e-05
3.82705e-05
2.76089e-05
1.80392e-05
1.01962e-05
5.27201e-06
3.67528e-06
4.44094e-06
7.95337e-06
1.02692e-05
1.25544e-05
1.63433e-05
2.72253e-05
4.80015e-05
6.72625e-05
7.83061e-05
7.98539e-05
7.02603e-05
4.80511e-05
2.94798e-05
1.6343e-05
9.56405e-06
8.4686e-06
9.4296e-06
1.07203e-05
1.25766e-05
1.79774e-05
2.72057e-05
3.55116e-05
3.99413e-05
4.0217e-05
3.43288e-05
2.39235e-05
1.60446e-05
1.11479e-05
9.06311e-06
9.15298e-06
1.29929e-05
2.38033e-05
3.50189e-05
4.31853e-05
4.65267e-05
4.57195e-05
3.69277e-05
2.55367e-05
1.72353e-05
1.26537e-05
1.20354e-05
1.27631e-05
1.63181e-05
2.19833e-05
2.54536e-05
2.61275e-05
2.38851e-05
1.74104e-05
1.28589e-05
1.14147e-05
1.31362e-05
1.99524e-05
2.61312e-05
2.91779e-05
2.93964e-05
2.62604e-05
1.83544e-05
1.54057e-05
1.56056e-05
1.75909e-05
1.51867e-05
1.28634e-05
1.07041e-05
8.89976e-06
7.98197e-06
8.04505e-06
9.59574e-06
1.46465e-05
3.05652e-05
6.34718e-05
0.000104392
0.000135296
0.00014487
0.000126074
9.58155e-05
6.59033e-05
4.14805e-05
2.57166e-05
1.75239e-05
1.38344e-05
1.19619e-05
1.04851e-05
9.00744e-06
7.63477e-06
6.67478e-06
6.2609e-06
6.37648e-06
7.26099e-06
7.60496e-06
7.14121e-06
6.12723e-06
8.6687e-06
2.42033e-05
3.40218e-05
3.50423e-05
4.11383e-05
4.46525e-05
4.59524e-05
5.02544e-05
6.32657e-05
7.58683e-05
8.07986e-05
7.678e-05
5.76444e-05
3.7928e-05
2.29768e-05
1.38873e-05
9.27584e-06
7.36988e-06
6.71789e-06
6.22419e-06
5.73576e-06
5.56636e-06
6.6365e-06
1.43273e-05
2.23119e-05
2.45339e-05
2.36099e-05
2.18828e-05
2.20226e-05
2.59235e-05
3.37721e-05
3.89249e-05
3.97001e-05
3.51112e-05
2.58248e-05
1.71026e-05
9.82608e-06
5.31064e-06
3.87567e-06
4.5507e-06
7.7263e-06
9.86998e-06
1.22377e-05
1.63481e-05
2.81627e-05
5.01556e-05
7.04299e-05
8.19192e-05
8.34969e-05
7.35997e-05
5.03148e-05
3.10203e-05
1.74292e-05
1.02517e-05
9.04393e-06
9.73606e-06
1.07802e-05
1.23118e-05
1.67425e-05
2.49833e-05
3.2636e-05
3.69155e-05
3.73031e-05
3.22838e-05
2.27878e-05
1.54991e-05
1.09184e-05
8.9755e-06
9.06581e-06
1.3193e-05
2.48932e-05
3.66769e-05
4.50499e-05
4.8385e-05
4.75215e-05
3.84238e-05
2.66368e-05
1.80519e-05
1.31819e-05
1.22781e-05
1.27039e-05
1.53715e-05
2.06989e-05
2.4074e-05
2.48055e-05
2.28079e-05
1.67795e-05
1.25664e-05
1.13379e-05
1.33087e-05
2.0706e-05
2.70845e-05
3.01848e-05
3.04109e-05
2.7335e-05
1.91435e-05
1.5683e-05
1.55562e-05
1.75522e-05
1.51329e-05
1.27746e-05
1.05421e-05
8.64807e-06
7.55447e-06
7.45349e-06
8.41655e-06
1.15563e-05
1.86628e-05
3.92297e-05
7.85721e-05
0.000123275
0.000151693
0.000154814
0.000127522
9.19389e-05
6.00596e-05
3.64128e-05
2.22048e-05
1.50608e-05
1.17816e-05
1.00017e-05
8.66626e-06
7.55033e-06
6.77008e-06
6.47949e-06
6.64712e-06
7.33774e-06
7.48184e-06
6.9576e-06
6.3785e-06
9.90338e-06
2.22804e-05
2.7375e-05
2.79739e-05
3.75314e-05
4.34183e-05
4.69784e-05
5.54451e-05
7.10909e-05
8.4414e-05
8.91349e-05
8.33445e-05
6.12366e-05
3.94562e-05
2.34353e-05
1.39954e-05
9.32196e-06
7.39679e-06
6.73331e-06
6.25072e-06
5.69297e-06
5.4443e-06
6.05715e-06
1.23294e-05
2.10682e-05
2.43675e-05
2.38144e-05
2.14165e-05
2.09894e-05
2.29841e-05
2.92359e-05
3.39446e-05
3.51032e-05
3.20609e-05
2.40932e-05
1.62106e-05
9.51251e-06
5.37555e-06
4.06909e-06
4.66385e-06
7.51287e-06
9.48005e-06
1.18773e-05
1.62418e-05
2.87319e-05
5.18764e-05
7.31617e-05
8.51093e-05
8.67569e-05
7.68515e-05
5.258e-05
3.25646e-05
1.86019e-05
1.11151e-05
9.61244e-06
9.98004e-06
1.07892e-05
1.20367e-05
1.56382e-05
2.29009e-05
2.99154e-05
3.40372e-05
3.45445e-05
3.03852e-05
2.17499e-05
1.50062e-05
1.07244e-05
8.93055e-06
9.03687e-06
1.33663e-05
2.58834e-05
3.82088e-05
4.67478e-05
5.00545e-05
4.91625e-05
3.98682e-05
2.77254e-05
1.89056e-05
1.37739e-05
1.24716e-05
1.26473e-05
1.45411e-05
1.94771e-05
2.27676e-05
2.35388e-05
2.17885e-05
1.6203e-05
1.23302e-05
1.12932e-05
1.35075e-05
2.14516e-05
2.80134e-05
3.11583e-05
3.13923e-05
2.8389e-05
2.00029e-05
1.60087e-05
1.55073e-05
1.66577e-05
1.43355e-05
1.20746e-05
9.94604e-06
8.11026e-06
7.03163e-06
6.94812e-06
7.77115e-06
1.02066e-05
1.46088e-05
2.36254e-05
4.99831e-05
9.53749e-05
0.000141477
0.000165151
0.000160861
0.000125664
8.67433e-05
5.44364e-05
3.22149e-05
1.9508e-05
1.32065e-05
1.02619e-05
8.64732e-06
7.56739e-06
6.91244e-06
6.70287e-06
6.88831e-06
7.39343e-06
7.44912e-06
7.01426e-06
7.01587e-06
1.20651e-05
2.03759e-05
2.2139e-05
2.3075e-05
3.4519e-05
4.18995e-05
4.84691e-05
6.09702e-05
7.87004e-05
9.27017e-05
9.71417e-05
8.94703e-05
6.45236e-05
4.07847e-05
2.38296e-05
1.40902e-05
9.35152e-06
7.37336e-06
6.67194e-06
6.21906e-06
5.63289e-06
5.28231e-06
5.55687e-06
1.0251e-05
1.94484e-05
2.39115e-05
2.39102e-05
2.13662e-05
2.00789e-05
2.08712e-05
2.5296e-05
2.95528e-05
3.09069e-05
2.91e-05
2.24487e-05
1.53674e-05
9.23858e-06
5.45087e-06
4.24933e-06
4.75763e-06
7.31049e-06
9.10553e-06
1.14627e-05
1.6017e-05
2.88653e-05
5.31054e-05
7.54028e-05
8.78198e-05
8.95945e-05
7.99728e-05
5.48555e-05
3.41247e-05
1.98159e-05
1.20509e-05
1.00995e-05
1.01796e-05
1.07232e-05
1.17472e-05
1.46346e-05
2.09824e-05
2.73655e-05
3.12955e-05
3.19743e-05
2.86168e-05
2.07992e-05
1.45604e-05
1.0564e-05
8.92133e-06
9.04964e-06
1.34985e-05
2.67494e-05
3.95868e-05
4.82538e-05
5.15126e-05
5.06211e-05
4.12539e-05
2.87972e-05
1.97783e-05
1.44156e-05
1.26485e-05
1.258e-05
1.38536e-05
1.82855e-05
2.15247e-05
2.23347e-05
2.08288e-05
1.56785e-05
1.21447e-05
1.12842e-05
1.3733e-05
2.21718e-05
2.89084e-05
3.20889e-05
3.23303e-05
2.94158e-05
2.09113e-05
1.63993e-05
1.54578e-05
1.50756e-05
1.29737e-05
1.09369e-05
9.02359e-06
7.34422e-06
6.38268e-06
6.36765e-06
7.18628e-06
9.52872e-06
1.26816e-05
1.78048e-05
2.89912e-05
6.18522e-05
0.000112637
0.000158959
0.000176117
0.000162986
0.00012189
8.1198e-05
4.95518e-05
2.89907e-05
1.75825e-05
1.19421e-05
9.25975e-06
7.8917e-06
7.18398e-06
6.97713e-06
7.11733e-06
7.48002e-06
7.47822e-06
7.33949e-06
8.34402e-06
1.38038e-05
1.86365e-05
1.90644e-05
2.04075e-05
3.20558e-05
4.09299e-05
5.03985e-05
6.61923e-05
8.57811e-05
0.000100746
0.000104229
9.49815e-05
6.74326e-05
4.19095e-05
2.41647e-05
1.41524e-05
9.34286e-06
7.31063e-06
6.5519e-06
6.13269e-06
5.55027e-06
5.11646e-06
5.18269e-06
8.25314e-06
1.74076e-05
2.311e-05
2.37989e-05
2.16109e-05
1.93966e-05
1.94105e-05
2.20302e-05
2.56882e-05
2.71928e-05
2.62311e-05
2.09494e-05
1.45704e-05
9.002e-06
5.52851e-06
4.40971e-06
4.82978e-06
7.1158e-06
8.74811e-06
1.1016e-05
1.56246e-05
2.8582e-05
5.38065e-05
7.70861e-05
8.99064e-05
9.20891e-05
8.29099e-05
5.71426e-05
3.57202e-05
2.10405e-05
1.2986e-05
1.04682e-05
1.02925e-05
1.06091e-05
1.14374e-05
1.37211e-05
1.92062e-05
2.49837e-05
2.87491e-05
2.95506e-05
2.69582e-05
1.99277e-05
1.41581e-05
1.04343e-05
8.93031e-06
9.08329e-06
1.35753e-05
2.74682e-05
4.07873e-05
4.95499e-05
5.2746e-05
5.18805e-05
4.25789e-05
2.9851e-05
2.06561e-05
1.50884e-05
1.28518e-05
1.24711e-05
1.32875e-05
1.71367e-05
2.03413e-05
2.11972e-05
1.99279e-05
1.52054e-05
1.2003e-05
1.13014e-05
1.39757e-05
2.28604e-05
2.97611e-05
3.29679e-05
3.32158e-05
3.04059e-05
2.18505e-05
1.6847e-05
1.54244e-05
1.30824e-05
1.12758e-05
9.54229e-06
7.91619e-06
6.47348e-06
5.69697e-06
5.75009e-06
6.53461e-06
8.79919e-06
1.16739e-05
1.49715e-05
2.0731e-05
3.49159e-05
7.46739e-05
0.00013001
0.000172568
0.000183903
0.000162106
0.000116984
7.59435e-05
4.56717e-05
2.67429e-05
1.64257e-05
1.13306e-05
8.92334e-06
7.80709e-06
7.41466e-06
7.43856e-06
7.63094e-06
7.6852e-06
8.13158e-06
1.03617e-05
1.4681e-05
1.72987e-05
1.74172e-05
1.91354e-05
3.00291e-05
4.01692e-05
5.23075e-05
7.0924e-05
9.21377e-05
0.000107568
0.000110731
9.98068e-05
6.98849e-05
4.27996e-05
2.44284e-05
1.41653e-05
9.28899e-06
7.21022e-06
6.38745e-06
5.99384e-06
5.46244e-06
4.93604e-06
4.85536e-06
6.63849e-06
1.48668e-05
2.1816e-05
2.35133e-05
2.19921e-05
1.90639e-05
1.83421e-05
1.95193e-05
2.24266e-05
2.39244e-05
2.35291e-05
1.95272e-05
1.38165e-05
8.79767e-06
5.60232e-06
4.55039e-06
4.89772e-06
6.92615e-06
8.43201e-06
1.05566e-05
1.50812e-05
2.78791e-05
5.39391e-05
7.81117e-05
9.15725e-05
9.4029e-05
8.55906e-05
5.94416e-05
3.73711e-05
2.22613e-05
1.38564e-05
1.07718e-05
1.03027e-05
1.04734e-05
1.1109e-05
1.29017e-05
1.75558e-05
2.27718e-05
2.6372e-05
2.72832e-05
2.53833e-05
1.91402e-05
1.37962e-05
1.03296e-05
8.96178e-06
9.1338e-06
1.3576e-05
2.8016e-05
4.17904e-05
5.06267e-05
5.37512e-05
5.29308e-05
4.38446e-05
3.08875e-05
2.15282e-05
1.57739e-05
1.30739e-05
1.23304e-05
1.2813e-05
1.60497e-05
1.92113e-05
2.0133e-05
1.90825e-05
1.47836e-05
1.18903e-05
1.13551e-05
1.42297e-05
2.35147e-05
3.05641e-05
3.37877e-05
3.40405e-05
3.1348e-05
2.2804e-05
1.73542e-05
1.54102e-05
1.09222e-05
9.45219e-06
8.05318e-06
6.73548e-06
5.57851e-06
5.04533e-06
5.16165e-06
5.86836e-06
7.8337e-06
1.06369e-05
1.34815e-05
1.67542e-05
2.31937e-05
4.14563e-05
8.75484e-05
0.000144762
0.000183293
0.000188202
0.000158994
0.00011169
7.1382e-05
4.28348e-05
2.54485e-05
1.60719e-05
1.14054e-05
9.20751e-06
8.2923e-06
8.01901e-06
8.01015e-06
8.3081e-06
9.60969e-06
1.2273e-05
1.53344e-05
1.67439e-05
1.676e-05
1.86006e-05
2.85114e-05
3.95852e-05
5.40131e-05
7.49715e-05
9.7527e-05
0.00011325
0.000116153
0.000103731
7.17767e-05
4.34907e-05
2.4575e-05
1.41049e-05
9.18713e-06
7.07446e-06
6.1877e-06
5.80184e-06
5.34319e-06
4.77726e-06
4.55548e-06
5.44675e-06
1.20777e-05
2.00059e-05
2.2945e-05
2.22542e-05
1.91263e-05
1.75191e-05
1.77804e-05
1.96884e-05
2.11171e-05
2.10616e-05
1.81513e-05
1.31016e-05
8.59849e-06
5.66523e-06
4.6746e-06
4.94802e-06
6.74485e-06
8.15239e-06
1.01127e-05
1.44231e-05
2.67041e-05
5.35652e-05
7.85303e-05
9.26879e-05
9.54282e-05
8.79273e-05
6.17995e-05
3.9079e-05
2.34708e-05
1.46512e-05
1.10052e-05
1.02256e-05
1.02934e-05
1.07727e-05
1.21643e-05
1.60406e-05
2.07227e-05
2.4138e-05
2.51971e-05
2.38614e-05
1.84355e-05
1.34701e-05
1.02492e-05
9.00617e-06
9.1973e-06
1.35189e-05
2.83769e-05
4.2581e-05
5.14833e-05
5.45357e-05
5.37809e-05
4.50495e-05
3.19067e-05
2.23841e-05
1.64558e-05
1.33347e-05
1.21797e-05
1.24e-05
1.50321e-05
1.81473e-05
1.91283e-05
1.8281e-05
1.4416e-05
1.18217e-05
1.14224e-05
1.44806e-05
2.41286e-05
3.13103e-05
3.45419e-05
3.47977e-05
3.22309e-05
2.37586e-05
1.7911e-05
1.54221e-05
8.83013e-06
7.69558e-06
6.61796e-06
5.59115e-06
4.72566e-06
4.45838e-06
4.62596e-06
5.28836e-06
6.84315e-06
9.26982e-06
1.208e-05
1.46395e-05
1.78767e-05
2.51863e-05
4.84318e-05
9.97667e-05
0.000157508
0.000190341
0.000189815
0.000154482
0.000106668
6.77266e-05
4.10084e-05
2.50624e-05
1.65094e-05
1.21873e-05
1.01031e-05
9.23505e-06
9.09093e-06
9.71366e-06
1.15136e-05
1.39529e-05
1.59458e-05
1.67271e-05
1.6708e-05
1.84677e-05
2.73878e-05
3.91237e-05
5.53611e-05
7.81569e-05
0.000101792
0.000117609
0.00012028
0.000106627
7.31325e-05
4.39393e-05
2.46037e-05
1.39724e-05
9.03473e-06
6.9044e-06
5.96156e-06
5.55792e-06
5.18185e-06
4.62652e-06
4.294e-06
4.65375e-06
9.29771e-06
1.76965e-05
2.20178e-05
2.21434e-05
1.95085e-05
1.70564e-05
1.66263e-05
1.75117e-05
1.87256e-05
1.88388e-05
1.68136e-05
1.24204e-05
8.39819e-06
5.71343e-06
4.78013e-06
4.98325e-06
6.57271e-06
7.90023e-06
9.70245e-06
1.37447e-05
2.51238e-05
5.25657e-05
7.83176e-05
9.3237e-05
9.62821e-05
8.98105e-05
6.42526e-05
4.08139e-05
2.46588e-05
1.53808e-05
1.12141e-05
1.00814e-05
1.00631e-05
1.04221e-05
1.14977e-05
1.46623e-05
1.88279e-05
2.20794e-05
2.32514e-05
2.23987e-05
1.77845e-05
1.31757e-05
1.01843e-05
9.0575e-06
9.26091e-06
1.33877e-05
2.85318e-05
4.31464e-05
5.21244e-05
5.51178e-05
5.44469e-05
4.61995e-05
3.29113e-05
2.32139e-05
1.71231e-05
1.36177e-05
1.20324e-05
1.20298e-05
1.40876e-05
1.71396e-05
1.81836e-05
1.75249e-05
1.40967e-05
1.17858e-05
1.15052e-05
1.47213e-05
2.46937e-05
3.19934e-05
3.52248e-05
3.54829e-05
3.30413e-05
2.47048e-05
1.85074e-05
1.54605e-05
6.97555e-06
6.13748e-06
5.33649e-06
4.56294e-06
3.9845e-06
3.92918e-06
4.13775e-06
4.80433e-06
5.99603e-06
7.8227e-06
1.03062e-05
1.28733e-05
1.50701e-05
1.83047e-05
2.6815e-05
5.53605e-05
0.000110936
0.000167308
0.000194392
0.000189016
0.000149612
0.000102233
6.50101e-05
4.01109e-05
2.54854e-05
1.76701e-05
1.371e-05
1.19118e-05
1.14343e-05
1.19509e-05
1.36944e-05
1.55941e-05
1.66921e-05
1.69149e-05
1.68982e-05
1.84943e-05
2.64053e-05
3.84267e-05
5.61707e-05
8.02042e-05
0.000105088
0.000120444
0.000122865
0.000108487
7.39782e-05
4.41112e-05
2.44672e-05
1.37601e-05
8.82975e-06
6.6993e-06
5.71653e-06
5.2738e-06
4.96959e-06
4.46834e-06
4.06426e-06
4.13287e-06
6.85962e-06
1.4961e-05
2.05908e-05
2.16804e-05
1.99437e-05
1.70285e-05
1.57833e-05
1.59461e-05
1.67405e-05
1.69e-05
1.55091e-05
1.17567e-05
8.19338e-06
5.7447e-06
4.86586e-06
5.00365e-06
6.40745e-06
7.66909e-06
9.32699e-06
1.31015e-05
2.3231e-05
5.08949e-05
7.76458e-05
9.32226e-05
9.66219e-05
9.13061e-05
6.66725e-05
4.25412e-05
2.58217e-05
1.60707e-05
1.13876e-05
9.89964e-06
9.78957e-06
1.00508e-05
1.08871e-05
1.34164e-05
1.70912e-05
2.01585e-05
2.14599e-05
2.09788e-05
1.71837e-05
1.29086e-05
1.01362e-05
9.11128e-06
9.3195e-06
1.32147e-05
2.84328e-05
4.34673e-05
5.25559e-05
5.55302e-05
5.49511e-05
4.73045e-05
3.38973e-05
2.40075e-05
1.77634e-05
1.39206e-05
1.19079e-05
1.1681e-05
1.32173e-05
1.61805e-05
1.7302e-05
1.68175e-05
1.38157e-05
1.17724e-05
1.16047e-05
1.49493e-05
2.52033e-05
3.26083e-05
3.58247e-05
3.60993e-05
3.37714e-05
2.56314e-05
1.91306e-05
1.55318e-05
5.4323e-06
4.82656e-06
4.24942e-06
3.69635e-06
3.41135e-06
3.44214e-06
3.69243e-06
4.34833e-06
5.28587e-06
6.57437e-06
8.44568e-06
1.07981e-05
1.29849e-05
1.48485e-05
1.81389e-05
2.83149e-05
6.22181e-05
0.000120178
0.000174892
0.000195864
0.000186766
0.000144746
9.85152e-05
6.3202e-05
4.00373e-05
2.66442e-05
1.95809e-05
1.61862e-05
1.49451e-05
1.50044e-05
1.61608e-05
1.73498e-05
1.7695e-05
1.75701e-05
1.74661e-05
1.87732e-05
2.55555e-05
3.76904e-05
5.62319e-05
8.10657e-05
0.000106633
0.000121856
0.000124131
0.000109387
7.42374e-05
4.39087e-05
2.41628e-05
1.34697e-05
8.57323e-06
6.45789e-06
5.45572e-06
4.96578e-06
4.70238e-06
4.30264e-06
3.85286e-06
3.75599e-06
5.11739e-06
1.18609e-05
1.86023e-05
2.09015e-05
2.00972e-05
1.72424e-05
1.53039e-05
1.48773e-05
1.51335e-05
1.52543e-05
1.42439e-05
1.1102e-05
7.96976e-06
5.77324e-06
4.92705e-06
5.00795e-06
6.24983e-06
7.44972e-06
8.9789e-06
1.24662e-05
2.14218e-05
4.84075e-05
7.62531e-05
9.26503e-05
9.6584e-05
9.2379e-05
6.89931e-05
4.4243e-05
2.69585e-05
1.67348e-05
1.15554e-05
9.70417e-06
9.46676e-06
9.6588e-06
1.03142e-05