/*--------------------------------*- C++ -*----------------------------------*\
| =========                 |                                                 |
| \\      /  F ield         | OpenFOAM: The Open Source CFD Toolbox           |
|  \\    /   O peration     | Version:  5.0                                   |
|   \\  /    A nd           | Web:      www.OpenFOAM.org                      |
|    \\/     M anipulation  |                                                 |
\*---------------------------------------------------------------------------*/
FoamFile
{
    version     2.0;
    format      ascii;
    class       volScalarField;
    location    "7";
    object      nut;
}
// * * * * * * * * * * * * * * * * * * * * * * * * * * * * * * * * * * * * * //

dimensions      [0 2 -1 0 0 0 0];

internalField   nonuniform List<scalar> 
24400
(
1.37134e-07
1.75129e-07
0
0
0
0
0
0
0
0
7.75696e-10
2.90964e-08
6.45774e-08
1.10638e-07
1.76673e-07
2.85137e-07
2.72671e-07
8.66206e-08
1.4672e-07
0
2.93769e-07
1.03283e-07
0
0
0
0
0
0
0
0
1.71065e-08
4.57678e-08
8.30078e-08
1.33953e-07
2.14599e-07
3.50419e-07
8.48864e-08
1.34052e-07
1.52257e-07
0
5.70936e-07
5.03678e-08
0
0
0
0
0
0
0
8.89882e-09
3.23594e-08
6.2852e-08
1.04321e-07
1.65903e-07
2.77042e-07
1.69169e-07
1.20849e-07
1.42491e-07
1.58345e-07
0
6.96396e-07
1.85341e-08
0
0
0
0
0
0
4.07571e-09
2.30196e-08
4.77833e-08
8.12071e-08
1.29489e-07
2.09909e-07
3.22578e-07
1.116e-07
1.47283e-07
1.40902e-07
1.52374e-07
0
4.87262e-07
6.23175e-10
0
0
0
0
0
1.93154e-09
1.7355e-08
3.75701e-08
6.47647e-08
1.03132e-07
1.63302e-07
2.77949e-07
1.44204e-07
1.44938e-07
1.51291e-07
1.33706e-07
1.42287e-07
0
2.74762e-07
0
0
0
0
0
9.1686e-10
1.3917e-08
3.08762e-08
5.33596e-08
8.45116e-08
1.31129e-07
2.13549e-07
2.96572e-07
1.46346e-07
1.55813e-07
1.45737e-07
1.2509e-07
1.32003e-07
0
1.4734e-07
0
0
0
0
0
1.12744e-08
2.60769e-08
4.52542e-08
7.12335e-08
1.08692e-07
1.69635e-07
2.9408e-07
1.73489e-07
1.62342e-07
1.52545e-07
1.36489e-07
1.16549e-07
1.22703e-07
0
6.91984e-08
0
0
0
0
8.35393e-09
2.18441e-08
3.89702e-08
6.13853e-08
9.25709e-08
1.4022e-07
2.28985e-07
2.96359e-07
1.71206e-07
1.61953e-07
1.4402e-07
1.26785e-07
1.09019e-07
1.14716e-07
0
1.59471e-08
0
0
0
4.38276e-09
1.72891e-08
3.31517e-08
5.32236e-08
8.01758e-08
1.19266e-07
1.84629e-07
3.25612e-07
2.01083e-07
1.71399e-07
1.53843e-07
1.34185e-07
1.17832e-07
1.02675e-07
1.07934e-07
0
0
0
0
0
1.19084e-08
2.69808e-08
4.56383e-08
6.96851e-08
1.03055e-07
1.54686e-07
2.55456e-07
3.13522e-07
1.84605e-07
1.63827e-07
1.43551e-07
1.24849e-07
1.10127e-07
9.75138e-08
1.02176e-07
0
0
0
0
5.74692e-09
2.00278e-08
3.77582e-08
5.98042e-08
8.91918e-08
1.32051e-07
2.05474e-07
3.66499e-07
2.19572e-07
1.75087e-07
1.53339e-07
1.3343e-07
1.16657e-07
1.03723e-07
9.33973e-08
9.72437e-08
0
0
0
2.75053e-09
1.25685e-08
2.8992e-08
4.98736e-08
7.63569e-08
1.13111e-07
1.70787e-07
2.87013e-07
3.42798e-07
1.91636e-07
1.64104e-07
1.42687e-07
1.24404e-07
1.09775e-07
9.85262e-08
9.01721e-08
9.297e-08
0
0
0
8.38929e-09
1.97853e-08
3.89377e-08
6.36459e-08
9.59911e-08
1.43391e-07
2.26232e-07
4.10256e-07
2.36098e-07
1.77102e-07
1.53027e-07
1.32978e-07
1.16715e-07
1.04104e-07
9.43422e-08
8.7645e-08
8.91753e-08
0
0
0
1.3875e-08
2.7449e-08
4.99658e-08
7.94267e-08
1.19737e-07
1.83322e-07
3.13194e-07
3.96222e-07
1.978e-07
1.64906e-07
1.42684e-07
1.24475e-07
1.1025e-07
9.94154e-08
9.09295e-08
8.55993e-08
8.56621e-08
0
0
0
1.90843e-08
3.54611e-08
6.20089e-08
9.75686e-08
1.48866e-07
2.38435e-07
4.45737e-07
2.62306e-07
1.79925e-07
1.53898e-07
1.33438e-07
1.17207e-07
1.0487e-07
9.55489e-08
8.8161e-08
8.39446e-08
8.23682e-08
0
0
0
2.38852e-08
4.37456e-08
7.50976e-08
1.18526e-07
1.85525e-07
3.20084e-07
4.8864e-07
2.08301e-07
1.68112e-07
1.447e-07
1.25952e-07
1.11571e-07
1.00854e-07
9.27652e-08
8.63154e-08
8.29833e-08
7.96306e-08
5.95072e-09
0
0
2.80305e-08
5.21103e-08
8.92405e-08
1.4296e-07
2.3341e-07
4.46187e-07
3.26533e-07
1.88942e-07
1.5976e-07
1.37805e-07
1.20634e-07
1.07846e-07
9.84474e-08
9.13338e-08
8.56935e-08
8.3042e-08
7.78297e-08
1.29814e-08
0
0
3.14275e-08
6.03638e-08
1.04246e-07
1.7132e-07
2.9779e-07
5.77699e-07
2.34684e-07
1.78351e-07
1.52532e-07
1.31926e-07
1.16318e-07
1.04957e-07
9.66668e-08
9.03499e-08
8.54293e-08
8.32529e-08
7.61279e-08
2.0025e-08
0
0
3.43618e-08
6.87254e-08
1.20364e-07
2.04534e-07
3.87212e-07
4.70849e-07
1.98713e-07
1.66339e-07
1.42566e-07
1.23715e-07
1.09819e-07
9.98271e-08
9.25131e-08
8.68541e-08
8.25421e-08
8.0552e-08
7.13744e-08
2.38736e-08
0
0
3.54213e-08
7.52586e-08
1.35435e-07
2.41117e-07
5.03965e-07
2.76602e-07
1.76158e-07
1.50544e-07
1.28719e-07
1.11893e-07
9.97259e-08
9.09788e-08
8.44656e-08
7.92875e-08
7.54203e-08
7.32615e-08
6.1791e-08
2.22733e-08
3.36208e-10
0
0
0
1.00663e-07
2.68757e-07
2.54546e-07
9.77724e-08
0
0
0
3.60041e-07
1.23052e-06
2.13753e-06
2.70262e-06
2.87077e-06
2.77986e-06
2.54929e-06
2.18987e-06
1.63218e-06
0
0
0
0
1.2755e-08
1.52534e-07
1.27459e-07
0
0
8.24268e-08
4.52627e-07
9.65913e-07
1.50181e-06
1.95372e-06
2.26742e-06
2.43631e-06
2.48238e-06
2.41616e-06
2.16905e-06
1.59114e-06
0
0
0
0
0
4.07412e-08
5.04252e-08
4.34437e-08
1.98751e-07
4.77915e-07
8.0493e-07
1.13473e-06
1.44285e-06
1.71284e-06
1.93321e-06
2.09653e-06
2.20116e-06
2.21959e-06
2.0331e-06
1.43303e-06
0
0
0
0
0
0
9.26789e-08
2.45013e-07
4.51744e-07
6.65941e-07
8.75613e-07
1.0831e-06
1.28864e-06
1.4881e-06
1.67449e-06
1.83968e-06
1.97486e-06
2.04025e-06
1.87951e-06
1.27638e-06
0
0
6.26601e-09
1.06268e-08
0
0
9.43345e-08
2.86169e-07
4.64777e-07
6.2268e-07
7.7499e-07
9.32371e-07
1.09829e-06
1.27122e-06
1.44622e-06
1.616e-06
1.76661e-06
1.85733e-06
1.69219e-06
1.11686e-06
0
0
1.57642e-08
1.91366e-08
0
0
0
1.58689e-07
3.22924e-07
4.65896e-07
6.01981e-07
7.42738e-07
8.93482e-07
1.05495e-06
1.22409e-06
1.3947e-06
1.54626e-06
1.65074e-06
1.46851e-06
9.57685e-07
0
0
2.25369e-08
1.74113e-08
0
0
0
5.47661e-09
1.50543e-07
2.85164e-07
4.14687e-07
5.47811e-07
6.90055e-07
8.4334e-07
1.0051e-06
1.16992e-06
1.30952e-06
1.41896e-06
1.2141e-06
7.83045e-07
0
0
2.69488e-08
8.25491e-09
0
0
0
0
4.08206e-09
1.24021e-07
2.44214e-07
3.69213e-07
5.03131e-07
6.47259e-07
7.97607e-07
9.49661e-07
1.06786e-06
1.17704e-06
9.55696e-07
5.96868e-07
0
3.02713e-09
2.97518e-08
0
0
0
0
0
0
0
1.07067e-07
2.2187e-07
3.45921e-07
4.78254e-07
6.12599e-07
7.46333e-07
8.40153e-07
9.49393e-07
7.24191e-07
4.14647e-07
0
7.92196e-09
3.18149e-08
0
0
0
0
0
0
0
9.73574e-09
1.13217e-07
2.25263e-07
3.42435e-07
4.57084e-07
5.7019e-07
6.43719e-07
7.54787e-07
5.3969e-07
2.53395e-07
0
1.41054e-08
3.38623e-08
0
0
0
0
0
0
0
0
4.15823e-08
1.3942e-07
2.38889e-07
3.33264e-07
4.27885e-07
4.89086e-07
6.03149e-07
4.07968e-07
1.21628e-07
0
2.20754e-08
3.61936e-08
0
0
0
0
0
0
0
0
0
8.16559e-08
1.63787e-07
2.41156e-07
3.22091e-07
3.78334e-07
4.95432e-07
3.23732e-07
1.84864e-08
0
3.23582e-08
3.83421e-08
0
0
0
0
0
0
0
0
0
4.54744e-08
1.13349e-07
1.78503e-07
2.50588e-07
3.06366e-07
4.26029e-07
2.75892e-07
0
0
4.5485e-08
3.8616e-08
0
0
0
0
0
0
0
0
0
2.56923e-08
8.31069e-08
1.40199e-07
2.07477e-07
2.64981e-07
3.84828e-07
2.58498e-07
0
0
6.20274e-08
3.34694e-08
0
0
0
0
0
0
0
0
0
1.7469e-08
6.78129e-08
1.20024e-07
1.86256e-07
2.4606e-07
3.64694e-07
2.65431e-07
0
0
8.3074e-08
1.71664e-08
0
0
0
0
0
0
0
0
0
1.70573e-08
6.28979e-08
1.13305e-07
1.8025e-07
2.4091e-07
3.64814e-07
2.94878e-07
3.11536e-08
0
1.1109e-07
0
0
0
0
0
0
0
0
0
0
2.15502e-08
6.50059e-08
1.16258e-07
1.83577e-07
2.48235e-07
3.8522e-07
3.17619e-07
3.15132e-07
1.221e-08
1.49998e-07
0
0
0
0
0
0
0
0
0
0
2.93768e-08
7.25992e-08
1.25232e-07
1.93429e-07
2.6984e-07
4.26292e-07
9.88549e-08
3.04192e-07
3.34985e-08
1.97281e-07
0
0
0
0
0
0
0
0
0
5.6777e-09
4.14621e-08
8.5108e-08
1.39208e-07
2.13213e-07
3.1187e-07
3.65906e-07
8.27903e-09
2.64587e-07
6.76758e-08
2.20009e-07
0
0
0
0
0
0
0
0
0
2.03647e-08
5.63649e-08
1.00657e-07
1.59433e-07
2.45526e-07
3.75341e-07
0
1.08266e-07
1.58254e-07
9.51928e-07
7.5478e-07
6.44512e-07
5.38937e-07
4.3096e-07
2.73683e-07
1.95251e-08
0
0
0
0
0
0
0
1.2622e-07
3.98073e-07
5.50897e-07
6.83527e-07
8.27436e-07
9.66334e-07
1.07523e-06
1.13538e-06
1.13861e-06
1.09081e-06
9.93538e-07
8.4958e-07
6.56015e-07
4.11523e-07
1.98115e-07
1.1071e-07
2.40462e-07
4.84669e-07
7.01563e-07
1.48174e-06
2.62812e-06
2.97613e-06
3.7902e-07
0
0
4.88658e-07
1.03617e-06
1.46081e-06
1.91818e-06
2.41767e-06
2.87072e-06
3.19988e-06
3.40509e-06
3.30016e-06
2.63693e-06
1.47851e-06
5.96948e-07
6.00879e-07
9.11065e-07
1.1044e-06
1.88752e-06
2.93942e-06
3.02322e-06
3.691e-07
0
0
0
0
4.88874e-07
1.32307e-06
2.17143e-06
2.77767e-06
3.00316e-06
2.62016e-06
1.35929e-06
1.18294e-08
0
1.22201e-06
2.03199e-06
2.03478e-06
0
0
0
0
0
0
1.27044e-06
2.50781e-06
2.96358e-06
2.24302e-06
1.03427e-06
4.25108e-07
0
1.36625e-06
4.8312e-07
0
0
0
0
0
7.25341e-07
9.57298e-07
5.94243e-07
1.11932e-07
0
0
0
0
0
0
0
4.55033e-08
5.45913e-07
6.64378e-07
4.61232e-07
0
0
0
0
0
0
0
4.88953e-08
7.27098e-08
0
0
0
0
0
0
0
0
0
0
0
0
6.827e-07
4.15151e-07
2.76437e-07
1.49631e-07
5.09255e-08
0
0
0
0
0
0
0
0
0
0
5.78614e-08
2.85381e-07
4.15647e-07
5.28167e-07
6.4218e-07
7.42306e-07
8.11272e-07
8.36774e-07
8.2036e-07
7.65971e-07
6.80974e-07
5.6565e-07
4.06577e-07
2.18935e-07
3.21943e-08
0
1.22523e-07
2.97528e-07
1.23206e-06
2.39355e-06
2.40513e-06
0
0
3.16216e-07
1.27992e-06
1.68017e-06
2.12847e-06
2.63968e-06
3.22675e-06
3.74796e-06
4.17965e-06
4.51056e-06
4.35183e-06
3.04329e-06
1.23333e-06
6.0722e-07
9.01219e-07
1.21347e-06
1.34342e-06
1.94565e-06
3.04337e-06
3.30133e-06
1.27285e-06
0
0
0
0
2.21276e-07
9.22165e-07
1.5951e-06
2.02954e-06
2.08049e-06
1.58256e-06
4.53232e-07
0
0
9.17165e-07
1.61098e-06
1.51774e-06
0
0
0
0
0
1.27679e-07
1.61531e-06
3.18784e-06
4.10568e-06
3.74637e-06
2.49919e-06
1.77061e-06
0
2.20443e-06
1.40172e-06
0
0
0
0
0
4.56485e-07
4.91039e-07
8.69466e-08
0
0
0
0
0
0
0
0
1.18693e-07
8.54275e-07
1.13627e-06
9.71639e-07
1.35429e-07
0
0
0
0
0
0
0
0
0
0
0
0
0
0
0
0
0
0
0
0
2.39923e-07
0
0
0
0
0
0
0
0
0
1.31816e-07
3.37653e-07
0
0
0
0
0
1.42179e-07
2.58853e-07
3.56604e-07
4.47272e-07
5.20089e-07
5.63255e-07
5.70425e-07
5.45897e-07
4.94698e-07
4.20018e-07
3.10524e-07
1.55827e-07
0
0
0
0
7.9715e-07
1.98919e-06
1.57489e-06
0
0
1.71898e-06
2.15759e-06
2.46103e-06
2.9461e-06
3.52566e-06
4.21703e-06
4.82041e-06
5.40019e-06
5.92793e-06
5.53797e-06
2.90526e-06
8.11198e-07
7.47751e-07
1.16359e-06
1.42637e-06
1.52525e-06
1.95988e-06
3.08399e-06
3.52875e-06
2.06709e-06
0
0
0
0
2.10005e-09
5.76161e-07
1.09942e-06
1.40801e-06
1.35368e-06
8.16433e-07
0
0
0
5.59676e-07
1.20954e-06
1.0534e-06
0
0
0
0
0
3.36509e-07
2.01067e-06
3.92285e-06
5.42787e-06
5.74898e-06
4.75256e-06
4.38124e-06
5.01627e-07
2.90949e-06
2.14972e-06
3.23812e-07
0
0
0
0
2.18396e-07
1.10582e-07
0
0
0
0
0
0
0
0
0
2.10458e-07
1.2208e-06
1.72319e-06
1.65404e-06
5.0015e-07
0
0
0
0
0
0
0
0
0
0
0
0
0
0
0
0
0
0
0
0
0
0
0
0
0
0
0
0
9.92518e-08
3.25826e-07
6.32247e-07
1.00768e-06
1.27936e-06
7.89777e-07
0
0
0
0
3.44969e-08
1.36637e-07
2.19477e-07
2.89512e-07
3.39309e-07
3.61047e-07
3.53473e-07
3.20289e-07
2.63202e-07
1.72231e-07
2.61876e-08
0
0
0
0
1.32698e-07
1.41235e-06
5.25051e-07
0
2.26239e-06
3.04076e-06
3.02627e-06
3.31484e-06
3.85674e-06
4.51123e-06
5.3297e-06
6.03787e-06
6.84183e-06
7.68856e-06
6.59673e-06
2.0306e-06
5.71392e-07
9.79402e-07
1.38809e-06
1.58725e-06
1.6687e-06
1.96817e-06
3.06317e-06
3.69564e-06
2.73917e-06
0
0
0
0
0
3.27074e-07
7.24658e-07
9.32512e-07
8.0942e-07
2.69663e-07
0
0
0
2.45813e-07
8.59708e-07
7.10303e-07
0
0
0
0
0
5.66341e-07
2.38778e-06
4.62144e-06
6.83922e-06
8.33232e-06
8.15426e-06
8.14861e-06
1.45887e-06
3.42871e-06
2.74728e-06
9.73027e-07
0
0
0
0
3.695e-08
0
0
0
0
0
0
0
0
0
0
2.94983e-07
1.61883e-06
2.41418e-06
2.53204e-06
9.46324e-07
0
0
3.14623e-07
0
0
0
0
0
0
0
0
0
0
0
0
0
0
0
0
2.64371e-07
0
0
0
0
0
0
0
3.69637e-08
2.79412e-07
6.01754e-07
1.02511e-06
1.50192e-06
1.9838e-06
2.22568e-06
1.52086e-06
0
0
0
0
0
5.72974e-08
1.22141e-07
1.70506e-07
1.97217e-07
1.98139e-07
1.73856e-07
1.23088e-07
3.51099e-08
0
0
0
0
2.14047e-07
0
7.74073e-07
0
2.46439e-06
4.69613e-06
4.11624e-06
3.87211e-06
4.22037e-06
4.83199e-06
5.59264e-06
6.56131e-06
7.39648e-06
8.52668e-06
9.86366e-06
6.8869e-06
8.08924e-07
5.91491e-07
1.22704e-06
1.57846e-06
1.7216e-06
1.77759e-06
1.96819e-06
2.9978e-06
3.80656e-06
3.28966e-06
8.0951e-07
0
0
0
0
1.53398e-07
4.49531e-07
5.77673e-07
4.10668e-07
0
0
0
0
0
5.65695e-07
5.01814e-07
0
0
0
0
0
8.32428e-07
2.74159e-06
5.23973e-06
8.24152e-06
1.15864e-05
1.31415e-05
8.5866e-06
2.18066e-06
3.78237e-06
3.21411e-06
1.52995e-06
3.27138e-07
0
0
0
0
0
0
0
0
0
0
0
0
0
0
3.67559e-07
2.03566e-06
3.20725e-06
3.6454e-06
1.40931e-06
0
7.59053e-07
7.32092e-07
1.80015e-07
6.4262e-09
0
0
0
0
0
0
0
0
0
0
0
0
0
0
6.2871e-07
0
0
0
0
0
0
0
1.34396e-07
4.31147e-07
7.59814e-07
1.23742e-06
1.83499e-06
2.44635e-06
2.97668e-06
3.1231e-06
2.12906e-06
4.31457e-07
0
0
0
0
1.22955e-08
5.55204e-08
7.98862e-08
8.22599e-08
6.03896e-08
1.02469e-08
0
0
0
0
0
6.43941e-07
0
5.5545e-07
2.87455e-06
7.719e-06
5.91935e-06
4.86699e-06
4.67991e-06
5.12954e-06
5.83713e-06
6.72983e-06
7.86466e-06
8.88138e-06
1.04486e-05
1.24954e-05
5.35533e-06
0
7.69548e-07
1.45778e-06
1.74456e-06
1.83378e-06
1.8666e-06
1.98233e-06
2.88584e-06
3.85361e-06
3.72898e-06
1.69687e-06
0
0
0
0
3.96598e-08
2.55596e-07
3.2058e-07
1.26045e-07
0
0
0
0
0
3.20188e-07
3.81634e-07
0
0
0
0
0
1.14061e-06
3.05172e-06
5.70283e-06
9.4367e-06
1.54586e-05
1.96217e-05
4.83623e-06
2.66387e-06
4.00964e-06
3.57555e-06
2.01416e-06
7.39449e-07
1.38424e-07
0
0
0
0
0
0
0
0
0
0
0
0
0
4.16896e-07
2.44133e-06
4.07363e-06
5.01043e-06
1.56891e-06
0
1.4974e-06
1.10743e-06
3.49594e-07
8.25314e-08
0
0
0
0
0
0
0
0
0
0
0
0
0
0
9.0315e-07
0
0
0
0
0
0
0
2.43075e-07
5.7758e-07
9.25733e-07
1.31972e-06
1.9599e-06
2.71062e-06
3.42196e-06
3.95648e-06
3.94852e-06
2.61898e-06
7.65934e-07
0
0
0
0
0
4.50114e-09
3.39851e-09
0
0
0
0
0
0
0
3.94709e-07
5.20565e-07
1.02113e-06
6.74644e-06
7.70856e-06
6.06819e-06
5.31126e-06
5.37622e-06
5.98087e-06
6.82387e-06
7.87658e-06
9.19744e-06
1.04321e-05
1.25597e-05
1.55078e-05
1.66433e-06
0
1.00495e-06
1.65788e-06
1.88798e-06
1.93628e-06
1.94078e-06
2.00065e-06
2.73889e-06
3.8475e-06
4.05671e-06
2.53245e-06
2.28669e-07
0
0
0
0
1.26685e-07
1.41975e-07
0
0
0
0
0
0
1.1428e-07
2.85813e-07
0
0
0
0
0
1.48376e-06
3.2891e-06
5.92385e-06
1.01232e-05
1.94352e-05
2.43945e-05
2.05878e-06
2.98105e-06
4.15171e-06
3.84634e-06
2.43864e-06
1.11039e-06
4.098e-07
1.16985e-07
0
0
0
0
0
0
0
0
0
0
0
0
4.20863e-07
2.78322e-06
4.94269e-06
6.58432e-06
2.75108e-07
0
2.07076e-06
1.45518e-06
5.06895e-07
1.5099e-07
0
0
0
0
0
0
0
0
0
0
0
0
0
0
1.1276e-06
0
0
0
0
0
0
2.04003e-09
3.67126e-07
7.31938e-07
1.08973e-06
1.45528e-06
1.91113e-06
2.73126e-06
3.62559e-06
4.42333e-06
4.91905e-06
4.68521e-06
3.00732e-06
1.02049e-06
1.37149e-07
0
0
0
0
0
0
0
0
0
0
0
0
1.33902e-07
5.63266e-07
1.2101e-06
4.97115e-06
5.99297e-06
5.60843e-06
5.47691e-06
5.89924e-06
6.72128e-06
7.75363e-06
8.96775e-06
1.0504e-05
1.1983e-05
1.47675e-05
1.83876e-05
0
0
1.24336e-06
1.82747e-06
2.01185e-06
2.03051e-06
2.0086e-06
2.03325e-06
2.56568e-06
3.78046e-06
4.28028e-06
3.27024e-06
9.5076e-07
0
0
0
0
4.7246e-08
2.41312e-08
0
0
0
0
0
0
0
1.75385e-07
0
0
0
0
4.98233e-07
1.85836e-06
3.43921e-06
5.83846e-06
9.94698e-06
2.17052e-05
1.80144e-05
7.33344e-07
3.18846e-06
4.2297e-06
4.04596e-06
2.81039e-06
1.45073e-06
6.57902e-07
2.6183e-07
2.08969e-08
0
0
0
0
0
0
0
0
0
0
0
3.56519e-07
2.99209e-06
5.68814e-06
8.18575e-06
0
0
2.5252e-06
1.78243e-06
6.59317e-07
2.13872e-07
0
0
0
0
0
0
0
0
0
0
0
0
0
0
1.32946e-06
0
0
0
0
0
0
1.27674e-07
5.01081e-07
8.8353e-07
1.25992e-06
1.60254e-06
1.97378e-06
2.5267e-06
3.54417e-06
4.57698e-06
5.40454e-06
5.84508e-06
5.32835e-06
3.30876e-06
1.21309e-06
2.70348e-07
6.8222e-09
0
0
0
0
0
0
0
0
0
0
0
3.62018e-07
8.93355e-07
2.8225e-06
4.18387e-06
4.825e-06
5.3771e-06
6.21773e-06
7.30825e-06
8.55131e-06
9.97604e-06
1.17316e-05
1.34572e-05
1.69058e-05
1.94117e-05
0
0
1.46124e-06
1.9697e-06
2.11783e-06
2.12076e-06
2.06921e-06
2.06714e-06
2.40783e-06
3.63124e-06
4.39767e-06
3.88033e-06
1.76416e-06
1.3182e-07
0
0
0
3.58293e-09
0
0
0
0
0
0
0
0
4.26215e-08
0
0
0
0
1.28401e-06
2.27373e-06
3.49911e-06
5.42457e-06
8.62719e-06
1.8019e-05
3.9733e-07
1.32361e-07
3.33441e-06
4.26158e-06
4.19214e-06
3.13364e-06
1.76921e-06
8.88213e-07
3.98882e-07
7.37056e-08
0
0
0
0
0
0
0
0
0
0
0
2.02576e-07
2.98149e-06
6.09811e-06
9.28443e-06
0
0
2.89166e-06
2.09426e-06
8.12496e-07
2.73025e-07
0
0
0
0
0
0
0
0
0
0
0
0
0
0
1.52711e-06
0
0
0
0
0
0
2.714e-07
6.36907e-07
1.01564e-06
1.40971e-06
1.76141e-06
2.07634e-06
2.4612e-06
3.17053e-06
4.38076e-06
5.51761e-06
6.36711e-06
6.71041e-06
5.87514e-06
3.5407e-06
1.35653e-06
3.65661e-07
5.15734e-08
0
0
0
0
0
0
0
0
0
0
1.45092e-07
4.52619e-07
1.31227e-06
2.61538e-06
3.89178e-06
5.0433e-06
6.31345e-06
7.70616e-06
9.18678e-06
1.08428e-05
1.28212e-05
1.47726e-05
1.87559e-05
1.53792e-05
0
0
1.65069e-06
2.08779e-06
2.20608e-06
2.20241e-06
2.13074e-06
2.09856e-06
2.28471e-06
3.40677e-06
4.41316e-06
4.34062e-06
2.61717e-06
6.24571e-07
0
0
0
0
0
0
0
0
0
0
0
0
0
0
0
1.68e-07
1.83366e-06
2.29748e-06
2.74498e-06
3.48806e-06
4.7184e-06
6.1553e-06
4.36566e-06
0
0
3.44226e-06
4.26478e-06
4.29092e-06
3.412e-06
2.0714e-06
1.10623e-06
5.30001e-07
1.32054e-07
0
0
0
0
0
0
0
0
0
0
0
0
2.6512e-06
5.84159e-06
8.52049e-06
0
0
3.19506e-06
2.39447e-06
9.70672e-07
3.30277e-07
1.58564e-08
0
0
0
0
0
0
0
0
0
0
0
0
0
1.73317e-06
0
0
0
0
0
1.11055e-09
4.24503e-07
7.69624e-07
1.12479e-06
1.51142e-06
1.8885e-06
2.20086e-06
2.49316e-06
2.91383e-06
3.83909e-06
5.22409e-06
6.45077e-06
7.28044e-06
7.5066e-06
6.33218e-06
3.72397e-06
1.46138e-06
4.24268e-07
6.59041e-08
0
0
0
0
0
0
0
0
0
0
4.27517e-08
2.71597e-07
1.30225e-06
2.89712e-06
4.50988e-06
6.18242e-06
7.89412e-06
9.62877e-06
1.15274e-05
1.37258e-05
1.58693e-05
2.00637e-05
6.06159e-06
0
2.60063e-07
1.81058e-06
2.18506e-06
2.27617e-06
2.27251e-06
2.19106e-06
2.1306e-06
2.21168e-06
3.11604e-06
4.32818e-06
4.64701e-06
3.42159e-06
1.25596e-06
1.8079e-07
0
0
0
0
0
0
0
0
0
0
0
0
0
2.94294e-06
8.5801e-06
4.57016e-06
3.57522e-06
3.28933e-06
3.43681e-06
3.81203e-06
2.90066e-06
0
0
0
3.53205e-06
4.25262e-06
4.34935e-06
3.64575e-06
2.36032e-06
1.31713e-06
6.57301e-07
1.94655e-07
0
0
0
0
0
0
0
0
0
0
0
0
1.89628e-06
4.45129e-06
2.85235e-06
0
0
3.45039e-06
2.6847e-06
1.13725e-06
3.87498e-07
3.14613e-08
0
0
0
0
0
0
0
0
0
0
0
0
0
1.95573e-06
0
0
0
0
0
2.04042e-07
5.731e-07
8.92006e-07
1.21416e-06
1.56484e-06
1.9443e-06
2.29322e-06
2.56424e-06
2.84233e-06
3.3345e-06
4.51383e-06
6.06228e-06
7.34793e-06
8.13701e-06
8.22057e-06
6.72206e-06
3.87826e-06
1.53605e-06
4.46635e-07
4.56901e-08
0
0
0
0
0
0
0
0
0
0
0
2.11577e-07
1.88053e-06
3.81167e-06
5.83009e-06
7.87524e-06
9.85578e-06
1.19964e-05
1.44159e-05
1.6707e-05
2.06434e-05
0
0
5.30836e-07
1.94226e-06
2.26445e-06
2.32925e-06
2.32751e-06
2.24652e-06
2.163e-06
2.1797e-06
2.79309e-06
4.14083e-06
4.79794e-06
4.1e-06
2.0208e-06
5.11148e-07
7.90766e-08
1.59648e-08
0
0
0
0
0
0
0
0
0
0
0
5.09912e-06
2.04386e-05
8.28368e-06
5.15139e-06
3.92111e-06
3.3803e-06
2.83298e-06
0
0
0
0
3.60793e-06
4.23663e-06
4.37578e-06
3.8344e-06
2.63584e-06
1.52543e-06
7.83517e-07
2.60695e-07
0
0
0
0
0
0
0
0
0
0
0
0
6.2335e-07
1.36446e-06
0
0
0
3.6697e-06
2.9663e-06
1.31432e-06
4.46657e-07
4.60343e-08
0
0
0
0
0
0
0
0
0
0
0
0
0
2.20017e-06
0
0
0
0
0
3.9375e-07
6.9928e-07
9.89395e-07
1.2805e-06
1.58705e-06
1.93416e-06
2.3013e-06
2.61327e-06
2.84497e-06
3.11945e-06
3.7357e-06
5.19491e-06
6.8702e-06
8.21471e-06
8.92762e-06
8.8594e-06
7.06182e-06
4.02074e-06
1.59075e-06
4.3768e-07
0
0
0
0
0
0
0
0
0
0
0
0
8.87306e-07
2.98643e-06
5.28274e-06
7.62926e-06
9.87102e-06
1.22505e-05
1.48807e-05
1.72578e-05
2.04417e-05
0
0
7.67862e-07
2.04689e-06
2.32706e-06
2.36686e-06
2.36344e-06
2.29614e-06
2.19309e-06
2.1683e-06
2.51773e-06
3.83394e-06
4.79849e-06
4.6056e-06
2.85746e-06
9.68891e-07
2.34313e-07
6.80584e-08
1.27551e-08
0
0
0
0
0
0
0
0
0
0
4.72207e-06
2.84647e-05
1.29101e-05
7.03305e-06
4.65318e-06
3.35683e-06
1.90673e-06
0
0
0
0
3.67511e-06
4.22391e-06
4.37385e-06
3.97846e-06
2.89429e-06
1.73465e-06
9.11317e-07
3.30022e-07
0
0
0
0
0
0
0
0
0
0
0
0
0
0
0
0
0
3.86161e-06
3.23856e-06
1.50244e-06
5.0976e-07
5.99012e-08
0
0
0
0
0
0
0
0
0
0
0
0
0
2.46898e-06
0
0
0
0
2.44383e-07
5.37908e-07
7.8657e-07
1.04552e-06
1.3131e-06
1.58616e-06
1.88472e-06
2.22802e-06
2.57378e-06
2.84025e-06
3.03251e-06
3.32769e-06
4.13097e-06
5.86132e-06
7.63234e-06
8.99211e-06
9.64863e-06
9.41597e-06
7.36436e-06
4.1725e-06
1.6429e-06
4.06255e-07
0
0
0
0
0
0
0
0
0
0
0
0
2.0874e-06
4.58128e-06
7.18437e-06
9.68109e-06
1.2286e-05
1.5105e-05
1.75047e-05
1.95971e-05
0
0
9.65705e-07
2.12394e-06
2.37094e-06
2.38919e-06
2.3777e-06
2.32837e-06
2.22461e-06
2.16372e-06
2.32693e-06
3.42476e-06
4.65392e-06
4.91659e-06
3.66102e-06
1.57964e-06
4.6028e-07
1.40209e-07
3.92232e-08
0
0
0
0
0
0
0
0
0
0
3.5532e-06
2.74907e-05
1.80296e-05
9.20792e-06
5.50377e-06
3.41474e-06
1.15051e-06
0
0
0
0
3.73263e-06
4.21368e-06
4.34963e-06
4.07761e-06
3.12915e-06
1.94568e-06
1.04231e-06
4.01903e-07
0
0
0
0
0
0
0
5.64788e-08
4.86956e-06
0
0
0
0
0
0
0
0
4.02968e-06
3.49854e-06
1.70122e-06
5.78472e-07
7.29185e-08
0
0
0
0
0
5.47246e-07
0
0
0
0
0
0
0
2.76239e-06
0
0
0
1.36476e-07
4.04997e-07
6.17055e-07
8.25734e-07
1.05529e-06
1.30248e-06
1.5546e-06
1.8119e-06
2.10296e-06
2.43653e-06
2.74945e-06
2.96315e-06
3.12313e-06
3.47791e-06
4.51663e-06
6.48803e-06
8.32703e-06
9.68239e-06
1.02643e-05
9.87047e-06
7.64181e-06
4.34514e-06
1.70886e-06
3.68447e-07
0
0
0
0
0
0
0
0
0
0
0
1.15337e-06
3.76409e-06
6.5826e-06
9.31258e-06
1.21199e-05
1.51029e-05
1.74948e-05
1.83843e-05
0
0
1.12589e-06
2.17369e-06
2.39374e-06
2.39525e-06
2.37008e-06
2.33631e-06
2.24822e-06
2.16197e-06
2.21126e-06
2.96644e-06
4.3671e-06
5.0269e-06
4.32148e-06
2.32812e-06
7.8793e-07
2.42178e-07
7.18788e-08
0
0
0
0
0
0
0
0
0
0
2.2397e-06
2.19831e-05
2.26548e-05
1.16305e-05
6.50608e-06
3.63387e-06
6.79062e-07
0
0
0
0
3.77777e-06
4.20775e-06
4.30763e-06
4.13397e-06
3.33251e-06
2.15733e-06
1.1777e-06
4.75027e-07
0
0
0
0
0
0
0
2.24316e-07
1.06219e-05
2.99229e-05
3.8e-07
0
0
0
0
0
0
4.17838e-06
3.74434e-06
1.90977e-06
6.54329e-07
8.48372e-08
0
0
0
0
0
1.05164e-06
0
0
0
0
0
0
0
3.07972e-06
0
0
5.64651e-08
2.8272e-07
4.65902e-07
6.3558e-07
8.20666e-07
1.02661e-06
1.25289e-06
1.48783e-06
1.71812e-06
1.95691e-06
2.23906e-06
2.55574e-06
2.82521e-06
2.98356e-06
3.12053e-06
3.57945e-06
4.89816e-06
7.05343e-06
8.91811e-06
1.02427e-05
1.07396e-05
1.02023e-05
7.87659e-06
4.54287e-06
1.81118e-06
3.47449e-07
0
0
0
0
0
0
0
0
0
0
2.37235e-07
2.86837e-06
5.83463e-06
8.76155e-06
1.17539e-05
1.48942e-05
1.72687e-05
1.70586e-05
0
0
1.26246e-06
2.20554e-06
2.40127e-06
2.39048e-06
2.34975e-06
2.32224e-06
2.25916e-06
2.16433e-06
2.14876e-06
2.5658e-06
3.93468e-06
4.94129e-06
4.78641e-06
3.13952e-06
1.2558e-06
3.968e-07
1.16741e-07
0
0
0
0
0
0
0
0
0
0
1.03191e-06
1.62014e-05
2.54875e-05
1.41582e-05
7.63799e-06
4.02522e-06
4.79081e-07
0
0
0
0
3.82523e-06
4.2202e-06
4.25948e-06
4.15656e-06
3.50265e-06
2.37149e-06
1.32486e-06
5.55499e-07
0
0
0
0
0
0
0
1.34467e-07
1.21546e-05
7.96481e-05
4.78598e-06
0
0
0
0
0
0
4.31622e-06
3.97987e-06
2.13023e-06
7.43117e-07
9.97477e-08
0
0
0
0
0
1.36918e-06
1.19044e-05
0
0
0
0
0
0
3.41833e-06
5.22882e-09
0
1.38348e-07
3.05631e-07
4.60985e-07
6.18337e-07
7.91999e-07
9.8245e-07
1.18912e-06
1.40609e-06
1.61895e-06
1.82329e-06
2.04751e-06
2.32348e-06
2.61771e-06
2.83529e-06
2.93422e-06
3.05531e-06
3.66957e-06
5.2939e-06
7.54848e-06
9.41045e-06
1.06728e-05
1.1075e-05
1.04282e-05
8.09144e-06
4.79251e-06
1.98718e-06
3.86688e-07
0
0
0
0
0
0
0
0
0
0
1.91186e-06
4.95122e-06
8.03317e-06
1.11812e-05
1.446e-05
1.67978e-05
1.55777e-05
0
0
1.39447e-06
2.23705e-06
2.40931e-06
2.38984e-06
2.33528e-06
2.3029e-06
2.26325e-06
2.18079e-06
2.126e-06
2.30555e-06
3.40078e-06
4.68474e-06
5.03682e-06
3.89919e-06
1.89885e-06
6.55406e-07
2.06874e-07
2.73785e-10
0
0
0
0
0
0
0
0
0
2.50131e-08
1.13838e-05
2.55473e-05
1.63009e-05
8.57618e-06
4.29473e-06
2.53649e-07
0
0
0
0
3.89813e-06
4.27282e-06
4.22806e-06
4.16496e-06
3.64714e-06
2.59533e-06
1.50052e-06
6.63734e-07
2.61824e-08
0
0
0
0
0
0
0
1.18725e-05
0.000104054
1.13036e-05
0
0
0
0
0
0
4.45844e-06
4.21235e-06
2.36873e-06
8.55438e-07
1.28114e-07
0
0
0
0
0
1.53727e-06
1.93966e-05
0
0
0
0
0
0
3.77353e-06
5.19384e-08
9.65122e-09
1.21954e-07
2.71956e-07
4.24117e-07
5.83707e-07
7.55337e-07
9.3684e-07
1.12774e-06
1.32702e-06
1.52641e-06
1.71398e-06
1.89831e-06
2.1176e-06
2.38967e-06
2.6539e-06
2.80729e-06
2.84073e-06
2.97218e-06
3.80526e-06
5.73747e-06
8.06258e-06
9.90247e-06
1.1083e-05
1.13797e-05
1.06672e-05
8.35128e-06
5.12712e-06
2.28862e-06
5.55685e-07
0
0
0
0
0
0
0
0
0
9.69251e-07
4.04632e-06
7.27536e-06
1.05687e-05
1.39626e-05
1.62216e-05
1.40142e-05
0
0
1.50776e-06
2.25473e-06
2.40491e-06
2.38074e-06
2.31796e-06
2.27568e-06
2.24941e-06
2.19277e-06
2.12499e-06
2.16826e-06
2.85221e-06
4.27555e-06
5.05343e-06
4.50706e-06
2.66948e-06
1.05127e-06
3.62167e-07
8.12557e-08
0
0
0
0
0
0
0
0
0
0
7.4931e-06
2.31102e-05
1.77906e-05
9.29798e-06
4.45153e-06
1.29896e-07
0
0
0
0
3.96335e-06
4.34291e-06
4.2001e-06
4.15042e-06
3.75195e-06
2.80831e-06
1.68972e-06
7.88757e-07
1.10727e-07
0
0
0
0
0
0
0
1.07434e-05
9.40027e-05
2.09139e-05
0
0
0
0
0
0
4.59494e-06
4.43059e-06
2.6117e-06
9.81751e-07
1.61296e-07
0
0
0
0
0
1.57978e-06
2.1895e-05
0
0
0
0
0
0
4.13946e-06
2.27336e-08
0
8.91683e-08
2.12581e-07
3.51636e-07
5.0232e-07
6.59075e-07
8.18482e-07
9.80881e-07
1.14777e-06
1.31776e-06
1.48214e-06
1.63513e-06
1.79563e-06
2.00043e-06
2.24684e-06
2.4564e-06
2.53677e-06
2.53074e-06
2.73715e-06
3.8419e-06
6.0237e-06
8.37134e-06
1.01248e-05
1.11348e-05
1.12301e-05
1.03411e-05
8.03766e-06
5.00066e-06
2.30148e-06
5.63408e-07
0
0
0
0
0
0
0
0
3.60847e-07
3.42296e-06
6.74428e-06
1.01325e-05
1.35581e-05
1.56604e-05
1.28692e-05
0
0
1.50801e-06
2.15151e-06
2.2786e-06
2.25461e-06
2.19389e-06
2.14776e-06
2.12789e-06
2.10141e-06
2.05149e-06
2.0423e-06
2.36665e-06
3.6108e-06
4.73796e-06
4.74847e-06
3.29856e-06
1.4567e-06
4.69448e-07
8.52669e-08
0
0
0
0
0
0
0
0
0
0
4.34211e-06
1.93126e-05
1.94244e-05
1.0756e-05
5.2003e-06
6.03193e-07
0
0
0
0
3.84538e-06
4.27985e-06
4.06684e-06
4.01782e-06
3.72826e-06
2.91237e-06
1.79887e-06
8.39198e-07
1.21711e-07
0
0
0
0
0
0
0
9.38995e-06
7.67148e-05
3.68448e-05
0
0
0
0
0
0
4.65538e-06
4.57455e-06
2.80332e-06
1.07466e-06
1.58593e-07
0
0
0
0
0
1.554e-06
2.30318e-05
1.76874e-05
0
0
0
0
0
4.49867e-06
0
0
5.55465e-08
1.29177e-07
2.23636e-07
3.3035e-07
4.35499e-07
5.37833e-07
6.39928e-07
7.44047e-07
8.51415e-07
9.59919e-07
1.06366e-06
1.16229e-06
1.27293e-06
1.41836e-06
1.58302e-06
1.70191e-06
1.72897e-06
1.74587e-06
2.05759e-06
3.18726e-06
5.11502e-06
7.01153e-06
8.30736e-06
8.85107e-06
8.53304e-06
7.49202e-06
5.49556e-06
3.12052e-06
1.09676e-06
0
0
0
0
0
0
0
0
3.96048e-08
2.60002e-06
5.55102e-06
8.64944e-06
1.16823e-05
1.32206e-05
9.85533e-06
0
0
1.30948e-06
1.83547e-06
1.93492e-06
1.91441e-06
1.86507e-06
1.82449e-06
1.80844e-06
1.80282e-06
1.78614e-06
1.77544e-06
1.90515e-06
2.65039e-06
3.89817e-06
4.32556e-06
3.41823e-06
1.67444e-06
4.6821e-07
0
0
0
0
0
0
0
0
0
0
0
1.96685e-06
1.41339e-05
1.89572e-05
1.08901e-05
4.54618e-06
0
0
0
0
0
3.46867e-06
3.97171e-06
3.73006e-06
3.68207e-06
3.48436e-06
2.81462e-06
1.76093e-06
7.78515e-07
3.56056e-08
0
0
0
0
0
0
0
8.14545e-06
6.30188e-05
5.27868e-05
0
0
0
0
0
0
4.62317e-06
4.61355e-06
2.91371e-06
1.11932e-06
1.16786e-07
0
0
0
0
0
1.51015e-06
2.39492e-05
9.7313e-05
0
0
0
0
0
4.91771e-06
0
0
9.02901e-08
1.06316e-07
1.48785e-07
2.11003e-07
2.70095e-07
3.23786e-07
3.75894e-07
4.28392e-07
4.81411e-07
5.3448e-07
5.86286e-07
6.3477e-07
6.80213e-07
7.31711e-07
7.97481e-07
8.59549e-07
8.92094e-07
9.14788e-07
9.94392e-07
1.31886e-06
2.05218e-06
3.16599e-06
4.07043e-06
4.51393e-06
4.46334e-06
3.93583e-06
3.00225e-06
1.71972e-06
4.38232e-07
0
0
0
0
0
0
0
0
0
1.24244e-06
3.18362e-06
5.29792e-06
7.07812e-06
7.33267e-06
2.80424e-06
0
0
1.14182e-06
1.49669e-06
1.5384e-06
1.50581e-06
1.46033e-06
1.42227e-06
1.40232e-06
1.39633e-06
1.39227e-06
1.39321e-06
1.4534e-06
1.76864e-06
2.74259e-06
3.33482e-06
2.90081e-06
1.58273e-06
4.51676e-07
0
0
0
0
0
0
0
0
0
0
0
4.591e-07
9.28125e-06
1.41441e-05
6.81887e-06
7.71981e-07
0
0
0
0
0
3.08674e-06
3.45042e-06
3.1723e-06
3.10647e-06
2.96462e-06
2.44559e-06
1.5368e-06
6.27938e-07
0
0
0
0
0
0
0
0
6.69954e-06
5.04207e-05
5.58887e-05
0
0
0
0
0
0
4.28971e-06
4.26703e-06
2.75702e-06
1.05835e-06
5.98714e-08
0
0
0
0
0
1.31441e-06
2.24083e-05
0.000195992
0
0
0
0
0
4.97271e-06
0
1.78583e-07
2.6255e-07
2.37796e-07
2.44848e-07
2.80092e-07
3.14207e-07
3.41415e-07
3.65294e-07
3.87842e-07
4.08688e-07
4.27067e-07
4.42539e-07
4.54571e-07
4.62276e-07
4.68048e-07
4.76843e-07
4.8422e-07
4.80104e-07
4.72215e-07
4.8192e-07
5.57075e-07
7.65776e-07
1.16086e-06
1.62507e-06
1.92656e-06
1.97172e-06
1.73175e-06
1.23812e-06
5.34281e-07
0
0
0
0
0
0
0
0
0
0
8.90252e-07
2.28983e-06
3.74223e-06
4.6083e-06
3.92507e-06
0
0
5.24495e-07
1.25384e-06
1.38847e-06
1.36436e-06
1.31387e-06
1.26538e-06
1.22683e-06
1.20348e-06
1.19345e-06
1.18753e-06
1.18487e-06
1.23269e-06
1.43056e-06
2.13745e-06
2.71886e-06
2.44359e-06
1.34692e-06
2.62396e-07
0
0
0
0
0
0
0
0
0
0
0
0
6.80463e-06
1.10942e-05
5.00067e-06
0
0
0
0
0
0
3.15648e-06
3.32912e-06
2.99865e-06
2.90097e-06
2.76515e-06
2.29632e-06
1.41973e-06
4.92378e-07
0
0
0
0
0
0
0
0
6.05891e-06
4.54719e-05
5.94815e-05
0
0
0
0
0
0
4.46539e-06
4.37789e-06
2.86855e-06
1.09706e-06
0
0
0
0
0
0
1.18504e-06
2.31684e-05
0.000208769
0
0
0
0
0
5.44508e-06
0
1.63479e-07
2.30466e-07
1.97045e-07
1.92818e-07
2.19709e-07
2.48105e-07
2.6971e-07
2.877e-07
3.04295e-07
3.19066e-07
3.3111e-07
3.40061e-07
3.45859e-07
3.47965e-07
3.46675e-07
3.44356e-07
3.40464e-07
3.30512e-07
3.17084e-07
3.09794e-07
3.2526e-07
3.96254e-07
5.49426e-07
8.09232e-07
1.04931e-06
1.16415e-06
1.0993e-06
8.50352e-07
4.42288e-07
0
0
0
0
0
0
0
0
0
0
1.01722e-06
2.21633e-06
3.38281e-06
3.85811e-06
2.64301e-06
0
0
8.81613e-07
1.22329e-06
1.25824e-06
1.22349e-06
1.18201e-06
1.14505e-06
1.1159e-06
1.09824e-06
1.09132e-06
1.08705e-06
1.08412e-06
1.1193e-06
1.26167e-06
1.78821e-06
2.41687e-06
2.29647e-06