/*--------------------------------*- C++ -*----------------------------------*\
| =========                 |                                                 |
| \\      /  F ield         | OpenFOAM: The Open Source CFD Toolbox           |
|  \\    /   O peration     | Version:  5.0                                   |
|   \\  /    A nd           | Web:      www.OpenFOAM.org                      |
|    \\/     M anipulation  |                                                 |
\*---------------------------------------------------------------------------*/
FoamFile
{
    version     2.0;
    format      ascii;
    class       volScalarField;
    location    "7";
    object      p;
}
// * * * * * * * * * * * * * * * * * * * * * * * * * * * * * * * * * * * * * //

dimensions      [0 2 -2 0 0 0 0];

internalField   nonuniform List<scalar> 
24400
(
-0.446118
-0.442879
-0.437795
-0.431655
-0.425492
-0.420291
-0.416793
-0.41532
-0.415669
-0.417105
-0.41848
-0.418487
-0.415955
-0.410106
-0.400631
-0.387721
-0.371684
-0.353413
-0.332543
-0.311259
-0.451272
-0.447685
-0.442308
-0.435976
-0.429653
-0.424225
-0.420297
-0.418032
-0.417075
-0.416601
-0.415503
-0.412674
-0.407274
-0.398882
-0.38747
-0.373365
-0.356901
-0.338858
-0.318896
-0.299593
-0.45738
-0.453336
-0.447595
-0.441043
-0.434542
-0.428843
-0.424382
-0.42115
-0.418657
-0.416053
-0.412362
-0.406754
-0.398725
-0.388149
-0.375184
-0.360199
-0.343502
-0.325752
-0.306611
-0.288334
-0.464421
-0.459814
-0.45363
-0.446809
-0.44007
-0.433998
-0.428837
-0.424402
-0.420116
-0.415184
-0.408849
-0.400592
-0.390218
-0.377813
-0.363627
-0.348011
-0.331218
-0.313773
-0.29534
-0.277857
-0.472358
-0.467093
-0.460386
-0.453227
-0.446158
-0.439568
-0.433497
-0.427606
-0.421294
-0.413915
-0.404986
-0.394296
-0.381889
-0.36798
-0.35284
-0.336766
-0.319943
-0.302777
-0.284933
-0.268074
-0.481148
-0.475146
-0.46784
-0.460261
-0.452741
-0.445448
-0.438218
-0.430605
-0.422072
-0.412196
-0.400791
-0.387913
-0.373769
-0.358626
-0.342733
-0.326316
-0.309497
-0.292578
-0.275234
-0.258907
-0.490745
-0.483945
-0.475971
-0.467882
-0.459759
-0.451535
-0.442866
-0.433272
-0.42237
-0.410014
-0.396303
-0.381491
-0.365875
-0.34972
-0.333224
-0.31654
-0.299739
-0.283035
-0.266122
-0.250252
-0.501102
-0.49346
-0.484759
-0.476056
-0.467144
-0.45772
-0.447312
-0.4355
-0.422138
-0.407377
-0.391555
-0.375052
-0.35819
-0.341196
-0.324205
-0.307308
-0.290529
-0.274013
-0.257477
-0.242006
-0.512165
-0.503657
-0.494174
-0.484735
-0.47481
-0.463882
-0.451429
-0.437202
-0.421347
-0.4043
-0.38657
-0.368596
-0.350675
-0.332976
-0.315574
-0.2985
-0.281746
-0.265396
-0.249196
-0.234076
-0.52387
-0.514487
-0.504168
-0.493844
-0.482645
-0.469882
-0.455097
-0.438306
-0.419982
-0.400793
-0.381355
-0.3621
-0.343274
-0.324976
-0.307225
-0.290006
-0.273278
-0.257079
-0.241183
-0.226377
-0.536131
-0.525877
-0.514664
-0.50328
-0.490508
-0.475569
-0.458196
-0.438753
-0.418028
-0.396862
-0.3759
-0.355529
-0.335922
-0.317111
-0.299063
-0.281723
-0.265027
-0.24897
-0.233355
-0.218834
-0.54884
-0.53773
-0.525553
-0.512899
-0.498225
-0.480781
-0.460615
-0.438492
-0.415473
-0.392495
-0.370179
-0.348833
-0.328549
-0.309297
-0.290997
-0.273561
-0.256905
-0.240988
-0.225637
-0.21138
-0.561855
-0.549915
-0.536688
-0.522521
-0.505601
-0.485348
-0.462249
-0.437474
-0.412294
-0.387672
-0.364155
-0.341956
-0.321084
-0.301454
-0.282944
-0.265439
-0.248835
-0.23306
-0.217965
-0.203955
-0.575004
-0.562264
-0.547884
-0.531932
-0.512421
-0.489108
-0.463002
-0.435653
-0.408464
-0.382359
-0.357779
-0.334834
-0.313456
-0.293505
-0.274827
-0.257281
-0.240744
-0.225119
-0.210277
-0.196506
-0.58808
-0.574576
-0.558921
-0.540892
-0.518469
-0.491907
-0.462788
-0.432982
-0.403946
-0.376513
-0.350997
-0.327403
-0.305592
-0.285377
-0.266573
-0.249015
-0.232566
-0.217104
-0.202517
-0.188982
-0.600844
-0.586615
-0.569545
-0.549133
-0.523511
-0.49358
-0.461501
-0.429388
-0.398677
-0.370066
-0.343734
-0.319586
-0.297416
-0.276995
-0.25811
-0.240578
-0.22424
-0.208959
-0.194635
-0.181336
-0.613028
-0.598115
-0.579469
-0.55637
-0.527312
-0.493968
-0.459044
-0.424806
-0.392599
-0.362961
-0.335935
-0.311327
-0.288873
-0.268307
-0.249391
-0.231922
-0.215726
-0.200648
-0.186597
-0.173539
-0.624339
-0.608772
-0.588373
-0.562308
-0.529663
-0.492958
-0.455368
-0.419215
-0.3857
-0.355186
-0.32758
-0.302604
-0.279942
-0.259292
-0.240396
-0.22303
-0.207007
-0.192159
-0.178396
-0.165587
-0.634454
-0.618241
-0.595891
-0.566624
-0.530344
-0.490424
-0.450404
-0.412571
-0.37794
-0.346697
-0.318627
-0.293375
-0.270578
-0.249909
-0.231083
-0.213864
-0.198046
-0.183456
-0.169999
-0.157456
-0.643037
-0.626187
-0.601713
-0.569072
-0.529168
-0.486209
-0.443992
-0.404697
-0.36913
-0.337301
-0.308883
-0.283452
-0.260604
-0.239984
-0.22129
-0.204266
-0.188696
-0.174399
-0.161272
-0.149019
-0.394329
-0.394788
-0.395095
-0.396007
-0.398155
-0.401804
-0.407024
-0.413798
-0.422072
-0.431748
-0.442648
-0.454462
-0.466706
-0.478697
-0.489548
-0.498192
-0.503472
-0.504083
-0.499122
-0.487409
-0.400877
-0.400779
-0.400723
-0.401539
-0.403797
-0.407786
-0.413596
-0.421229
-0.430642
-0.441747
-0.454358
-0.468144
-0.482579
-0.496909
-0.510152
-0.521118
-0.528498
-0.530857
-0.52708
-0.515371
-0.406962
-0.406295
-0.405858
-0.406525
-0.408813
-0.413031
-0.419291
-0.427607
-0.437944
-0.450211
-0.464212
-0.479591
-0.495785
-0.511974
-0.527107
-0.539893
-0.548896
-0.552527
-0.549557
-0.537413
-0.412466
-0.411237
-0.410394
-0.410848
-0.413065
-0.417376
-0.423915
-0.432708
-0.44372
-0.456854
-0.471898
-0.488469
-0.505964
-0.523524
-0.540033
-0.554118
-0.564266
-0.568683
-0.566144
-0.553146
-0.4173
-0.415537
-0.414269
-0.414438
-0.416469
-0.420716
-0.427344
-0.436387
-0.44781
-0.461501
-0.47723
-0.49459
-0.512943
-0.531395
-0.548783
-0.563673
-0.574493
-0.579223
-0.576751
-0.562526
-0.421408
-0.419156
-0.417456
-0.417269
-0.418989
-0.423008
-0.429521
-0.438579
-0.450143
-0.464088
-0.48016
-0.497927
-0.516726
-0.53563
-0.553444
-0.568685
-0.57973
-0.584317
-0.581543
-0.565744
-0.424771
-0.422093
-0.419964
-0.419354
-0.420641
-0.424262
-0.430457
-0.439296
-0.450742
-0.464654
-0.480757
-0.498593
-0.517475
-0.536449
-0.554298
-0.569484
-0.580344
-0.584352
-0.580894
-0.563217
-0.427406
-0.424379
-0.421837
-0.420745
-0.421485
-0.424549
-0.430229
-0.438629
-0.449718
-0.463342
-0.479205
-0.496825
-0.515491
-0.534224
-0.551786
-0.56656
-0.576851
-0.579866
-0.575318
-0.555517
-0.429365
-0.426077
-0.42315
-0.421533
-0.421628
-0.423991
-0.428982
-0.436747
-0.44727
-0.460391
-0.475795
-0.492974
-0.511192
-0.529442
-0.546451
-0.560494
-0.569843
-0.571458
-0.56539
-0.543308
-0.430729
-0.427272
-0.424
-0.421831
-0.421207
-0.422757
-0.426915
-0.433884
-0.443672
-0.456123
-0.470902
-0.487476
-0.505079
-0.522661
-0.538875
-0.551886
-0.559902
-0.559707
-0.55169
-0.527304
-0.431602
-0.428068
-0.424499
-0.421771
-0.420384
-0.421043
-0.424266
-0.430322
-0.439257
-0.45092
-0.464963
-0.480823
-0.497687
-0.514437
-0.529621
-0.541274
-0.547532
-0.545127
-0.53479
-0.508263
-0.43211
-0.428582
-0.424767
-0.421493
-0.41933
-0.419063
-0.421298
-0.426378
-0.434391
-0.445199
-0.45844
-0.473511
-0.489537
-0.505278
-0.519159
-0.529077
-0.533129
-0.528165
-0.51529
-0.486996
-0.432396
-0.428944
-0.42493
-0.42114
-0.41822
-0.417036
-0.418281
-0.422372
-0.429448
-0.439382
-0.451792
-0.466017
-0.481073
-0.495583
-0.507823
-0.515582
-0.517002
-0.509256
-0.493865
-0.464367
-0.432616
-0.429289
-0.42512
-0.420855
-0.417226
-0.415175
-0.415475
-0.418617
-0.424784
-0.433857
-0.445417
-0.458712
-0.472621
-0.485605
-0.495797
-0.500967
-0.499443
-0.488894
-0.471283
-0.441255
-0.43294
-0.429762
-0.425469
-0.420779
-0.416514
-0.413681
-0.413124
-0.415396
-0.420713
-0.428948
-0.439618
-0.451849
-0.464355
-0.47544
-0.483152
-0.485383
-0.480792
-0.467665
-0.448361
-0.41847
-0.433541
-0.430507
-0.426111
-0.421053
-0.416242
-0.412738
-0.41144
-0.412944
-0.417479
-0.424884
-0.434577
-0.445535
-0.456304
-0.465075
-0.469923
-0.469031
-0.461489
-0.446233
-0.425882
-0.396674
-0.43459
-0.43167
-0.427178
-0.421811
-0.416555
-0.412506
-0.410596
-0.411435
-0.415239
-0.421775
-0.430334
-0.439734
-0.448383
-0.454456
-0.456196
-0.452214
-0.442046
-0.425247
-0.40448
-0.37631
-0.436248
-0.433385
-0.42879
-0.423172
-0.417572
-0.413104
-0.410698
-0.410952
-0.414028
-0.419589
-0.426782
-0.434282
-0.440439
-0.44354
-0.442129
-0.435305
-0.422964
-0.405223
-0.384479
-0.357549
-0.438656
-0.43577
-0.431052
-0.425228
-0.419374
-0.414586
-0.411766
-0.411462
-0.413742
-0.418142
-0.423672
-0.428928
-0.43231
-0.432343
-0.427951
-0.418693
-0.404684
-0.386484
-0.365768
-0.340358
-0.441925
-0.438917
-0.434035
-0.428032
-0.421981
-0.416939
-0.413747
-0.412859
-0.414223
-0.417241
-0.420817
-0.423553
-0.424014
-0.421052
-0.413986
-0.402744
-0.387549
-0.369205
-0.348185
-0.324835
-0.469915
-0.447653
-0.421791
-0.393409
-0.363926
-0.334785
-0.30726
-0.282407
-0.261095
-0.244055
-0.231901
-0.225061
-0.223599
-0.227003
-0.234091
-0.24311
-0.252015
-0.258799
-0.261773
-0.259807
-0.252421
-0.239859
-0.223094
-0.203628
-0.183204
-0.163462
-0.145683
-0.130664
-0.118758
-0.110014
-0.104322
-0.101496
-0.101325
-0.103667
-0.10859
-0.116418
-0.127511
-0.141763
-0.158133
-0.174534
-0.188266
-0.196776
-0.198417
-0.192909
-0.181255
-0.165501
-0.148028
-0.130926
-0.115625
-0.10285
-0.0928256
-0.0855265
-0.0808173
-0.0785178
-0.07852
-0.0809665
-0.0862843
-0.0948374
-0.106301
-0.119243
-0.131291
-0.139842
-0.142946
-0.139994
-0.13179
-0.120212
-0.107455
-0.0953643
-0.0851645
-0.0774546
-0.0723332
-0.0696906
-0.0695948
-0.0724501
-0.0786254
-0.087792
-0.098526
-0.1085
-0.115167
-0.116646
-0.112494
-0.103768
-0.0926914
-0.0816629
-0.0723642
-0.0654904
-0.0611764
-0.0595985
-0.061032
-0.0653815
-0.0717044
-0.0781818
-0.0826161
-0.0832998
-0.0798709
-0.0734027
-0.0658357
-0.0589475
-0.0538122
-0.0510095
-0.050929
-0.0536195
-0.0583705
-0.0635699
-0.0671236
-0.0673862
-0.0640516
-0.0581877
-0.0515674
-0.0457518
-0.0417809
-0.0402327
-0.0410251
-0.0432107
-0.0451858
-0.0454251
-0.0432808
-0.0392702
-0.0346264
-0.030861
-0.0290347
-0.0295601
-0.0313608
-0.0329837
-0.0322069
-0.0289241
-0.0225452
-0.0159475
-0.00829522
-0.00400349
-0.49709
-0.472222
-0.443373
-0.41169
-0.37862
-0.345814
-0.31469
-0.28636
-0.261669
-0.241262
-0.225658
-0.215259
-0.210232
-0.210295
-0.214542
-0.22145
-0.229092
-0.23547
-0.238833
-0.237946
-0.232202
-0.221707
-0.207255
-0.190177
-0.172062
-0.154448
-0.138562
-0.1252
-0.114745
-0.1073
-0.102805
-0.101111
-0.102031
-0.105462
-0.11153
-0.120612
-0.133068
-0.148726
-0.166406
-0.183856
-0.198229
-0.206873
-0.20812
-0.201743
-0.188883
-0.171766
-0.152936
-0.134593
-0.118214
-0.10452
-0.0937003
-0.0856831
-0.0802932
-0.0773179
-0.07661
-0.0782561
-0.0826283
-0.0900784
-0.100336
-0.112094
-0.123145
-0.131061
-0.134031
-0.131481
-0.124139
-0.113709
-0.102193
-0.0913001
-0.0821932
-0.0754595
-0.0712148
-0.069396
-0.0701423
-0.0739293
-0.0811614
-0.0914934
-0.103415
-0.114448
-0.121853
-0.123591
-0.119159
-0.109677
-0.0975273
-0.0852982
-0.0748256
-0.0668709
-0.0615421
-0.0589377
-0.0592768
-0.0624619
-0.0676188
-0.0730637
-0.0767735
-0.0771961
-0.0740248
-0.0682616
-0.0616779
-0.0558815
-0.051859
-0.0501892
-0.0512912
-0.0552175
-0.0612028
-0.0675086
-0.0718549
-0.0724184
-0.0688283
-0.0622395
-0.0546139
-0.0476742
-0.0425314
-0.0397877
-0.0394049
-0.0405236
-0.0416733
-0.0414737
-0.0393617
-0.0358283
-0.0320129
-0.0293225
-0.0287248
-0.0305181
-0.0334846
-0.0360276
-0.0357474
-0.032481
-0.0256126
-0.0181148
-0.00954924
-0.00392611
-0.518428
-0.491347
-0.459845
-0.42522
-0.388919
-0.352762
-0.318332
-0.286819
-0.259071
-0.235667
-0.217018
-0.203444
-0.195134
-0.191976
-0.193341
-0.197985
-0.204175
-0.209985
-0.21364
-0.213791
-0.209752
-0.201432
-0.189436
-0.174909
-0.159275
-0.143952
-0.130104
-0.118518
-0.109612
-0.103542
-0.100299
-0.0997654
-0.101783
-0.106289
-0.113464
-0.123734
-0.137458
-0.154406
-0.173288
-0.191719
-0.206729
-0.21558
-0.216565
-0.209479
-0.195572
-0.177233
-0.15716
-0.137664
-0.120272
-0.105708
-0.09413
-0.085424
-0.0793764
-0.0757441
-0.0743429
-0.0752006
-0.078627
-0.0849576
-0.0939893
-0.104555
-0.114629
-0.121959
-0.124851
-0.12275
-0.116294
-0.107007
-0.09671
-0.0869878
-0.0789467
-0.0731637
-0.0697732
-0.0687589
-0.0703283
-0.0750229
-0.0832849
-0.0947607
-0.107868
-0.119984
-0.128179
-0.130245
-0.125601
-0.11541
-0.102204
-0.0887665
-0.0771015
-0.0680522
-0.0617092
-0.058092
-0.0573582
-0.0594088
-0.0634396
-0.0679005
-0.0709337
-0.071128
-0.068218
-0.0631314
-0.0574797
-0.0527198
-0.0497674
-0.0492069
-0.0514854
-0.0566578
-0.0639027
-0.0713512
-0.0765283
-0.0774197
-0.0735786
-0.0662462
-0.0575859
-0.0495018
-0.0431865
-0.0392651
-0.0377389
-0.0378306
-0.0381909
-0.0375696
-0.0354792
-0.0323913
-0.0293681
-0.0277257
-0.0283442
-0.0314079
-0.0355547
-0.0390354
-0.0392625
-0.0360096
-0.0286471
-0.0202477
-0.0107784
-0.0038491
-0.533546
-0.504758
-0.471107
-0.434071
-0.395079
-0.356072
-0.318778
-0.284472
-0.254025
-0.227983
-0.206674
-0.190319
-0.17907
-0.172907
-0.171432
-0.173704
-0.178245
-0.183271
-0.187032
-0.188116
-0.185685
-0.179522
-0.170022
-0.158121
-0.145062
-0.132128
-0.120408
-0.110675
-0.103379
-0.0987278
-0.0967593
-0.0973871
-0.100479
-0.106011
-0.11422
-0.125573
-0.140439
-0.158552
-0.178534
-0.197898
-0.213571
-0.222717
-0.223579
-0.215952
-0.201177
-0.181783
-0.160615
-0.140088
-0.121782
-0.106422
-0.0941426
-0.0847926
-0.0781218
-0.0738589
-0.0717861
-0.071875
-0.0743725
-0.0795975
-0.0874189
-0.0968151
-0.105946
-0.112725
-0.115568
-0.113925
-0.108342
-0.100169
-0.0910544
-0.0824634
-0.0754495
-0.0705794
-0.0680079
-0.0677636
-0.0701188
-0.0756766
-0.0849221
-0.0975047
-0.111785
-0.125005
-0.134045
-0.136511
-0.131731
-0.120893
-0.106668
-0.0920379
-0.0791805
-0.0690367
-0.0616911
-0.0570862
-0.0553158
-0.0562771
-0.0592348
-0.0627661
-0.0651677
-0.0651562
-0.062497
-0.0580447
-0.0532626
-0.0494748
-0.0475406
-0.0480545
-0.0514922
-0.05791
-0.0664311
-0.0750529
-0.0810975
-0.0823456
-0.0782646
-0.0701793
-0.0604653
-0.0512263
-0.0437469
-0.0386747
-0.0360446
-0.0351537
-0.034762
-0.0337343
-0.0316518
-0.0289738
-0.0267021
-0.0260747
-0.0278903
-0.0322206
-0.0375581
-0.0419918
-0.0427354
-0.0394931
-0.0316345
-0.0223367
-0.011978
-0.0037754
-0.542398
-0.512486
-0.47732
-0.438537
-0.397545
-0.35635
-0.316782
-0.280184
-0.247452
-0.219127
-0.195488
-0.176681
-0.1628
-0.15386
-0.149635
-0.149469
-0.152179
-0.156187
-0.159816
-0.161622
-0.160645
-0.156517
-0.149441
-0.140137
-0.129654
-0.119127
-0.109564
-0.101714
-0.0960545
-0.0928393
-0.0921461
-0.093915
-0.0980391
-0.104534
-0.113685
-0.125998
-0.141864
-0.160996
-0.181961
-0.202202
-0.21856
-0.228106
-0.229017
-0.221062
-0.205637
-0.185391
-0.163302
-0.141886
-0.122775
-0.106701
-0.0937842
-0.0838403
-0.0765867
-0.0717269
-0.0690129
-0.0683643
-0.0699646
-0.0741122
-0.0807487
-0.0890051
-0.0972274
-0.103491
-0.106304
-0.105113
-0.100371
-0.0932625
-0.0852731
-0.0777583
-0.0717198
-0.0677148
-0.0659179
-0.0664003
-0.0694924
-0.0758544
-0.0860181
-0.0996497
-0.11507
-0.129401
-0.139333
-0.142283
-0.137463
-0.126068
-0.110888
-0.0950992
-0.0810644
-0.0698374
-0.0615093
-0.0559499
-0.0531872
-0.0531113
-0.0550539
-0.0577132
-0.0595283
-0.0593289
-0.0569032
-0.0530341
-0.0490505
-0.046162
-0.0451845
-0.0467273
-0.0512944
-0.058944
-0.0687455
-0.0785621
-0.0855071
-0.0871458
-0.082847
-0.0740133
-0.0632388
-0.0528436
-0.0442165
-0.0380263
-0.0343366
-0.03251
-0.0314044
-0.0299855
-0.0278964
-0.025591
-0.0240261
-0.0243745
-0.0273608
-0.0329471
-0.0394804
-0.0448794
-0.0461481
-0.0429147
-0.0345607
-0.024373
-0.0131433
-0.00370796
-0.545143
-0.514682
-0.47871
-0.43892
-0.39671
-0.354099
-0.312967
-0.27469
-0.240183
-0.209988
-0.184363
-0.163409
-0.147172
-0.135673
-0.128806
-0.126159
-0.126856
-0.129581
-0.132791
-0.135043
-0.135274
-0.132965
-0.128143
-0.121309
-0.113313
-0.10514
-0.0977016
-0.0917203
-0.08769
-0.0859
-0.086459
-0.089329
-0.0944273
-0.101805
-0.111792
-0.124931
-0.14164
-0.161628
-0.183448
-0.204505
-0.221575
-0.23164
-0.232793
-0.224744
-0.208913
-0.188041
-0.165222
-0.143075
-0.123279
-0.106583
-0.0931001
-0.0826189
-0.0748291
-0.069412
-0.066094
-0.0647476
-0.0654942
-0.068607
-0.0740962
-0.0812489
-0.0885963
-0.0943702
-0.0971592
-0.0963998
-0.0924501
-0.0863412
-0.0794082
-0.0729038
-0.0677799
-0.0645845
-0.0635108
-0.0646688
-0.0684387
-0.0755324
-0.0865314
-0.101133
-0.11764
-0.133073
-0.143943
-0.147466
-0.14272
-0.130879
-0.114829
-0.0979365
-0.082755
-0.0704681
-0.0611846
-0.0547114
-0.0510072
-0.0499524
-0.0509417
-0.0527871
-0.0540585
-0.0536846
-0.0514694
-0.0481264
-0.0448645
-0.0427964
-0.0427066
-0.0452229
-0.0508773
-0.0597322
-0.0708054
-0.0818284
-0.0897033
-0.0917708
-0.087287
-0.0777231
-0.0658936
-0.0543504
-0.0445987
-0.0373294
-0.0326278
-0.0299145
-0.0281335
-0.0263384
-0.0242278
-0.0222566
-0.0213506
-0.0226302
-0.0267536
-0.0335786
-0.0413079
-0.0476813
-0.049483
-0.0462577
-0.037412
-0.0263474
-0.0142691
-0.00364942
-0.542167
-0.511697
-0.475648
-0.435628
-0.393015
-0.349807
-0.307875
-0.268597
-0.23289
-0.201298
-0.174073
-0.151293
-0.132972
-0.119129
-0.109738
-0.10459
-0.103103
-0.104258
-0.106711
-0.109069
-0.110193
-0.109419
-0.106594
-0.102018
-0.096347
-0.0904042
-0.0850053
-0.0808329
-0.0783866
-0.0779788
-0.0797395
-0.0836482
-0.0896447
-0.0978118
-0.108514
-0.122336
-0.139719
-0.160396
-0.182939
-0.204748
-0.222558
-0.233266
-0.23486
-0.226964
-0.210986
-0.189728
-0.166388
-0.143678
-0.123328
-0.106111
-0.0921382
-0.0811811
-0.072906
-0.0669757
-0.0630955
-0.0610975
-0.0610431
-0.0631746
-0.0675635
-0.0736519
-0.0801552
-0.0854567
-0.0882183
-0.0878573
-0.0846398
-0.0794562
-0.0735026
-0.0679354
-0.063659
-0.0612112
-0.0608028
-0.0625774
-0.0669565
-0.0746968
-0.0864323
-0.101906
-0.119426
-0.135938
-0.147782
-0.151974
-0.147429
-0.135273
-0.118462
-0.100538
-0.0842564
-0.0709434
-0.0607384
-0.0533973
-0.0488077
-0.0468361
-0.0469355
-0.0480251
-0.0487931
-0.0482544
-0.0462224
-0.0433449
-0.0407246
-0.039394
-0.0401165
-0.0435413
-0.0502296
-0.0602497
-0.0725731
-0.0848037
-0.0936336
-0.0961712
-0.0915453
-0.081283
-0.0684169
-0.0557434
-0.044897
-0.0365923
-0.0309301
-0.02738
-0.0249622
-0.0228058
-0.020659
-0.018983
-0.0186855
-0.0208467
-0.0260674
-0.0341072
-0.043027
-0.050381
-0.0527225
-0.0495058
-0.0401746
-0.028251
-0.0153503
-0.00360221
-0.534032
-0.504036
-0.468622
-0.429142
-0.38693
-0.343933
-0.301966
-0.262373
-0.226061
-0.193576
-0.165174
-0.140926
-0.120827
-0.104883
-0.0931182
-0.0854798
-0.081659
-0.0809512
-0.0822691
-0.0843364
-0.0859808
-0.0863951
-0.0852477
-0.0826582
-0.0790825
-0.0751904
-0.0716939
-0.069227
-0.0682812
-0.0691788
-0.0720623
-0.0769247
-0.0837258
-0.0925749
-0.103867
-0.11822
-0.136108
-0.157308
-0.180442
-0.202935
-0.221505
-0.232973
-0.235204
-0.227713
-0.211855
-0.190465
-0.166819
-0.143724
-0.122956
-0.105325
-0.0909462
-0.0795786
-0.0708721
-0.0644755
-0.060078
-0.0574783
-0.056682
-0.0578945
-0.0612377
-0.0663032
-0.0719901
-0.0768299
-0.079551
-0.0795479
-0.0769951
-0.0726562
-0.0675995
-0.0628915
-0.0593905
-0.0576235
-0.0578168
-0.0601424
-0.0650537
-0.0733451
-0.0857046
-0.101935
-0.120377
-0.137926
-0.150773
-0.155727
-0.151522
-0.139201
-0.121755
-0.102892
-0.0855747
-0.0712775
-0.0601915
-0.0520325
-0.0466168
-0.043793
-0.0430668
-0.0434571
-0.04376
-0.0430633
-0.0411847
-0.0387105
-0.0366506
-0.0359717
-0.0374257
-0.0416856
-0.0493427
-0.0604752
-0.0740138
-0.0874422
-0.0972466
-0.100298
-0.095582
-0.084667
-0.070796
-0.0570198
-0.045115
-0.0358229
-0.0292535
-0.0249178
-0.0219019
-0.0193993
-0.0172019
-0.0157817
-0.0160405
-0.0190292
-0.0253012
-0.0345252
-0.0446245
-0.0529614
-0.0558489
-0.0526422
-0.0428348
-0.0300746
-0.0163815
-0.00356856
-0.521415
-0.492335
-0.45822
-0.420004
-0.378943
-0.33691
-0.295621
-0.256359
-0.220012
-0.18713
-0.157984
-0.13265
-0.111114
-0.093365
-0.0794439
-0.0693996
-0.0631503
-0.0603077
-0.0600909
-0.0614176
-0.0631455
-0.0643524
-0.0645292
-0.0636039
-0.0618501
-0.0597826
-0.0580077
-0.0571021
-0.0575363
-0.0596301
-0.0635305
-0.0692409
-0.0767386
-0.0861546
-0.0979073
-0.11264
-0.130869
-0.152432
-0.176023
-0.199126
-0.218465
-0.230794
-0.233849
-0.227008
-0.211538
-0.190269
-0.166542
-0.143241
-0.122203
-0.10427
-0.0895709
-0.0778607
-0.0687782
-0.0619631
-0.0570945
-0.053945
-0.0524698
-0.0528323
-0.0551904
-0.0592762
-0.0641711
-0.0685528
-0.071214
-0.0715223
-0.0695638
-0.0659866
-0.0617415
-0.0578118
-0.0550106
-0.0538542
-0.0545817
-0.0573879
-0.0627484
-0.0714879
-0.0843481
-0.101205
-0.120458
-0.138985
-0.152849
-0.158656
-0.154936
-0.142614
-0.124682
-0.104991
-0.0867162
-0.0714848
-0.059564
-0.0506396
-0.0444591
-0.0408484
-0.0393604
-0.0391061
-0.0389795
-0.0381301
-0.0363746
-0.034242
-0.0326616
-0.0325476
-0.0346477
-0.0396616
-0.0482119
-0.0603912
-0.0750964
-0.0897013
-0.100493
-0.104102
-0.0993574
-0.0878487
-0.0730183
-0.0581771
-0.0452561
-0.035028
-0.0276071
-0.0225375
-0.018962
-0.0161285
-0.013867
-0.0126639
-0.013425
-0.0171831
-0.0244542
-0.0348255
-0.0460871
-0.0554057
-0.0588441
-0.0556506
-0.045379
-0.0318092
-0.0173575
-0.00355038
-0.505074
-0.477332
-0.445105
-0.408788
-0.369536
-0.329125
-0.289141
-0.250785
-0.214917
-0.182094
-0.152611
-0.126566
-0.10395
-0.0847363
-0.0689534
-0.0566953
-0.0480351
-0.0428633
-0.0407333
-0.0408357
-0.0421482
-0.0436963
-0.0448041
-0.0451929
-0.0449605
-0.0444612
-0.0441939
-0.0446711
-0.0463315
-0.0494825
-0.0542699
-0.0607053
-0.068781
-0.0786442
-0.0907287
-0.1057
-0.124116
-0.145889
-0.169804
-0.193433
-0.213534
-0.226806
-0.23085
-0.22489
-0.210066
-0.189169
-0.165585
-0.142263
-0.121103
-0.102986
-0.088057
-0.0760734
-0.06667
-0.0594839
-0.0541901
-0.0505427
-0.0484531
-0.048039
-0.0494781
-0.0526293
-0.0567534
-0.0606749
-0.0632509
-0.0638209
-0.0623866
-0.0594879
-0.0559689
-0.0527356
-0.0505577
-0.0499398
-0.0511316
-0.0543451
-0.0600688
-0.0691479
-0.082378
-0.0997189
-0.119656
-0.139083
-0.153962
-0.160705
-0.157617
-0.14547
-0.127214
-0.106829
-0.0876842
-0.0715796
-0.0588747
-0.049239
-0.0423555
-0.0380228
-0.0358352
-0.0349888
-0.034466
-0.0334678
-0.0318061
-0.0299556
-0.0287759
-0.0291402
-0.0317982
-0.0374783
-0.0468366
-0.0599848
-0.075795
-0.091543
-0.103328
-0.107538
-0.102833
-0.0908021
-0.0750714
-0.0592128
-0.0453233
-0.034214
-0.0259984
-0.0202468
-0.0161502
-0.0130017
-0.0106637
-0.0096397
-0.0108479
-0.0153138
-0.0235264
-0.0350014
-0.0474022
-0.057697
-0.0616901
-0.0585146
-0.0477939
-0.0334461
-0.0182727
-0.00354923
-0.485835
-0.459844
-0.429991
-0.396085
-0.359172
-0.320916
-0.282752
-0.245782
-0.210832
-0.178467
-0.149008
-0.122593
-0.0992344
-0.078904
-0.0616082
-0.0474362
-0.0365332
-0.0289869
-0.0246609
-0.0230738
-0.0234276
-0.024796
-0.0263831
-0.0277125
-0.028683
-0.0294805
-0.0304866
-0.0321436
-0.0348508
-0.0388967
-0.0444226
-0.051447
-0.0599752
-0.0701658
-0.0824605
-0.0975398
-0.116004
-0.137844
-0.161955
-0.186019
-0.206855
-0.221125
-0.226295
-0.221421
-0.207482
-0.187198
-0.163978
-0.140822
-0.119695
-0.101515
-0.0864464
-0.0742582
-0.0645877
-0.057076
-0.0514013
-0.0473063
-0.0446665
-0.0435519
-0.0441429
-0.0464068
-0.0497793
-0.0532336
-0.0556945
-0.0564762
-0.0554969
-0.0531959
-0.0503196
-0.0477018
-0.046071
-0.0459195
-0.0475052
-0.0510518
-0.0570511
-0.0663603
-0.0798246
-0.0975003
-0.11798
-0.138209
-0.154083
-0.161833
-0.159518
-0.14773
-0.12933
-0.108396
-0.0884816
-0.0715754
-0.0581407
-0.0478484
-0.040323
-0.0353321
-0.0325047
-0.0311157
-0.0302276
-0.0290847
-0.0274892
-0.0258648
-0.0250107
-0.0257682
-0.0288943
-0.035148
-0.0452204
-0.0592486
-0.0760893
-0.092935
-0.10571
-0.110564
-0.105972
-0.0935021
-0.0769439
-0.0601247
-0.0453197
-0.0333861
-0.0244338
-0.0180521
-0.0134725
-0.0100254
-0.00760017
-0.00671841
-0.00831823
-0.0134273
-0.0225186
-0.0350474
-0.0485573
-0.0598184
-0.0643691
-0.0612181
-0.0500665
-0.0349765
-0.0191218
-0.00356628
-0.464583
-0.440725
-0.413613
-0.382479
-0.348285
-0.312574
-0.276616
-0.241405
-0.207729
-0.176152
-0.147026
-0.12053
-0.0967227
-0.0755956
-0.0571423
-0.0414225
-0.0285831
-0.0188064
-0.0121816
-0.00854898
-0.00741562
-0.00802564
-0.00956685
-0.0114129
-0.0132376
-0.0150497
-0.0170874
-0.0197094
-0.0232695
-0.0280337
-0.034138
-0.0416081
-0.0504613
-0.0608634
-0.0732573
-0.0883309
-0.106721
-0.128499
-0.152682
-0.177082
-0.198604
-0.213896
-0.220295
-0.21668
-0.20384
-0.184397
-0.161755
-0.138956
-0.118017
-0.0998945
-0.0847779
-0.0724515
-0.0625646
-0.05477
-0.0487561
-0.0442619
-0.0411338
-0.0393953
-0.0392134
-0.0406407
-0.0432797
-0.0462561
-0.0485685
-0.0495113
-0.0489211
-0.047141
-0.0448276
-0.0427475
-0.0415897
-0.041834
-0.0437441
-0.0475503
-0.0537394
-0.0631699
-0.0767316
-0.0945896
-0.115459
-0.136375
-0.153204
-0.162014
-0.160608
-0.149364
-0.131007
-0.10968
-0.0891122
-0.0714844
-0.0573778
-0.0464832
-0.0383754
-0.0327879
-0.0293779
-0.0274926
-0.0262679
-0.0249839
-0.0234301
-0.0219804
-0.0213817
-0.0224503
-0.0259548
-0.0326857
-0.0433714
-0.0581808
-0.0759658
-0.093852
-0.107607
-0.113143
-0.108741
-0.0959253
-0.0786241
-0.0609104
-0.0452483
-0.0325493
-0.0229183
-0.0159581
-0.0109336
-0.00720482
-0.00468314
-0.00390845
-0.00584427
-0.0115294
-0.021432
-0.0349584
-0.0495411
-0.0617536
-0.0668631
-0.0637451
-0.0521845
-0.0363925
-0.0198998
-0.00360222
-0.442244
-0.420826
-0.396668
-0.368508
-0.337259
-0.304337
-0.270843
-0.23766
-0.205524
-0.174997
-0.146453
-0.120118
-0.0961049
-0.0744494
-0.0551573
-0.0382611
-0.0238698
-0.0121715
-0.00336629
0.00246444
0.00549645
0.00621306
0.00530598
0.00346383
0.00118215
-0.00133508
-0.00415524
-0.00752605
-0.0117427
-0.0170454
-0.0235657
-0.031338
-0.0403914
-0.0508965
-0.0632914
-0.0782626
-0.0964751
-0.118078
-0.142217
-0.166849
-0.188985
-0.205289
-0.212978
-0.210757
-0.1992
-0.180808
-0.158955
-0.136703
-0.116111
-0.0981655
-0.083087
-0.0706844
-0.0606281
-0.0525902
-0.0462758
-0.0414273
-0.0378698
-0.0355826
-0.0347059
-0.0353522
-0.0372767
-0.0397621
-0.0418895
-0.0429423
-0.042679
-0.0413478
-0.039523
-0.0379071
-0.0371518
-0.0377243
-0.0398917
-0.0438864
-0.0501829
-0.0596303
-0.0731563
-0.0910408
-0.112144
-0.133614
-0.15134
-0.161243
-0.160866
-0.150346
-0.132226
-0.110672
-0.0895792
-0.0713178
-0.0566006
-0.0451573
-0.0365239
-0.0303985
-0.0264599
-0.0241213
-0.022586
-0.021165
-0.0196314
-0.0183109
-0.017903
-0.019205
-0.0229994
-0.0301091
-0.0413022
-0.0567858
-0.0754182
-0.0942761
-0.108991
-0.115244
-0.111109
-0.0980493
-0.0800999
-0.0615678
-0.0451119
-0.0317079
-0.0214562
-0.0139683
-0.00853638
-0.00454365
-0.00191816
-0.00121732
-0.00343408
-0.00962666
-0.0202689
-0.0347307
-0.0503428
-0.0634868
-0.0691547
-0.0660803
-0.0541358
-0.0376863
-0.0206018
-0.00365729
-0.41973
-0.400924
-0.379769
-0.354638
-0.326421
-0.296398
-0.265507
-0.234516
-0.204103
-0.174815
-0.147048
-0.121072
-0.0970543
-0.0750906
-0.0552223
-0.037477
-0.0219207
-0.00869597
0.00198706
0.00992493
0.0150476
0.0175369
0.0178479
0.0165934
0.0143411
0.0114986
0.0081753
0.00427777
-0.000403046
-0.00607066
-0.0128508
-0.0207883
-0.0299248
-0.0404346
-0.0527461
-0.0675361
-0.0854869
-0.106818
-0.130806
-0.155561
-0.178224
-0.195495
-0.204482
-0.203747
-0.193622
-0.176475
-0.155618
-0.134105
-0.114015
-0.0963631
-0.0814031
-0.0689808
-0.0587983
-0.0505539
-0.0439749
-0.0388138
-0.0348814
-0.0321175
-0.0306259
-0.0305519
-0.0317841
-0.0337648
-0.035669
-0.0367804
-0.036785
-0.035836
-0.0344315
-0.0332116
-0.0327932
-0.0336301
-0.0359913
-0.0401078
-0.0464344
-0.0558014
-0.0691655
-0.0869218
-0.108098
-0.12998
-0.148523
-0.159533
-0.160279
-0.150659
-0.132968
-0.111365
-0.089883
-0.0710837
-0.0558211
-0.0438819
-0.034777
-0.028169
-0.0237523
-0.0210003
-0.0191784
-0.0176245
-0.016093
-0.0148617
-0.0145868
-0.0160498
-0.0200485
-0.0274385
-0.0390293
-0.0550733
-0.0744485
-0.0941976
-0.109843
-0.116841
-0.113052
-0.0998528
-0.0813593
-0.0620944
-0.0449129
-0.0308655
-0.0200507
-0.0120851
-0.00628283
-0.00204438
0.000690443
0.00134842
-0.00109527
-0.0077255
-0.0190322
-0.0343618
-0.0509529
-0.0650029
-0.071227
-0.0682088
-0.0559093
-0.0388507
-0.0212233
-0.00373116
-0.397857
-0.381666
-0.363406
-0.341235
-0.316021
-0.288893
-0.260636
-0.231909
-0.203322
-0.175399
-0.148551
-0.123091
-0.0992432
-0.0771589
-0.0569288
-0.0385996
-0.022213
-0.00785559
0.00431093
0.0140669
0.0212131
0.0256896
0.0276747
0.0275832
0.0259429
0.0232288
0.0197459
0.0155744
0.0106268
0.00476025
-0.0021349
-0.0101117
-0.0192256
-0.0296537
-0.0418113
-0.0563574
-0.07398
-0.0949599
-0.118697
-0.143465
-0.166551
-0.184712
-0.194944
-0.195749
-0.187171
-0.171444
-0.151784
-0.131199
-0.111761
-0.0945087
-0.0797397
-0.0673491
-0.0570815
-0.0486668
-0.0418579
-0.0364228
-0.0321656
-0.0289929
-0.0269666
-0.0262392
-0.0268066
-0.0282697
-0.0299117
-0.0310308
-0.0312467
-0.0306196
-0.029574
-0.0286882
-0.0285466
-0.0295896
-0.0320858
-0.0362619
-0.0425483
-0.0517469
-0.0648327
-0.0823125
-0.103398
-0.125546
-0.144808
-0.156916
-0.158853
-0.150292
-0.133221
-0.111745
-0.0900191
-0.0707835
-0.0550443
-0.0426618
-0.0331371
-0.0260989
-0.0212515
-0.018123
-0.016037
-0.0143551
-0.0128112
-0.0116359
-0.0114434
-0.0130012
-0.0171227
-0.024696
-0.0365731
-0.0530581
-0.0730658
-0.0936178
-0.110153
-0.117916
-0.114548
-0.101317
-0.0823911
-0.0624864
-0.0446518
-0.0300238
-0.0187027
-0.0103084
-0.00417263
0.000292184
0.00313967
0.00378319
0.00116495
-0.00583275
-0.0177256
-0.0338502
-0.0513635
-0.066288
-0.0730637
-0.0701162
-0.0574942
-0.0398793
-0.0217603
-0.00382296
-0.377266
-0.363528
-0.347919
-0.328554
-0.306231
-0.2819
-0.256212
-0.229731
-0.202997
-0.176501
-0.15067
-0.125854
-0.102327
-0.0802906
-0.059882
-0.0411801
-0.0242273
-0.00907162
0.00418699
0.0153745
0.0242684
0.0306772
0.0345511
0.036059
0.035569
0.033522
0.0303151
0.0261882
0.0212021
0.0153079
0.00843538
0.000533698
-0.00846332
-0.0187351
-0.0306809
-0.0449339
-0.0621761
-0.0827378
-0.106135
-0.130802
-0.154187
-0.173143
-0.184526
-0.186879
-0.179943
-0.165798
-0.147519
-0.128028
-0.10937
-0.0926066
-0.0780895
-0.0657772
-0.055465
-0.0469178
-0.0399144
-0.0342422
-0.0297061
-0.0261874
-0.0237054
-0.0223985
-0.0223375
-0.023273
-0.0246118
-0.0256862