/*--------------------------------*- C++ -*----------------------------------*\
| =========                 |                                                 |
| \\      /  F ield         | OpenFOAM: The Open Source CFD Toolbox           |
|  \\    /   O peration     | Version:  5.0                                   |
|   \\  /    A nd           | Web:      www.OpenFOAM.org                      |
|    \\/     M anipulation  |                                                 |
\*---------------------------------------------------------------------------*/
FoamFile
{
    version     2.0;
    format      ascii;
    class       surfaceScalarField;
    location    "7";
    object      phi;
}
// * * * * * * * * * * * * * * * * * * * * * * * * * * * * * * * * * * * * * //

dimensions      [0 3 -1 0 0 0 0];

internalField   nonuniform List<scalar> 
48410
(
2.13782e-07
1.68153e-05
-1.70291e-05
4.12828e-06
2.88584e-05
-3.27729e-05
1.4397e-05
2.27121e-05
-3.29808e-05
3.33066e-05
-1.70009e-06
-1.72096e-05
6.30158e-05
-4.51726e-05
1.54635e-05
0.00010547
-0.000108598
6.61436e-05
0.00016203
-0.000192266
0.000135705
0.000232874
-0.000295092
0.000224249
0.000316383
-0.000413984
0.000330475
0.000408894
-0.000543686
0.000451176
0.000505072
-0.000677363
0.000581185
0.000598927
-0.000807817
0.000713962
0.000685088
-0.000928881
0.00084272
0.000759863
-0.00103649
0.000961712
0.000821727
-0.00112902
0.00106716
0.00087117
-0.00120713
0.00115769
0.000910078
-0.00127266
0.00123375
0.000941153
-0.00132881
0.00129774
0.00096613
-0.00137564
0.00135066
-0.00142355
0.00139985
0.000989828
4.87257e-07
1.6328e-05
5.32394e-06
2.40217e-05
1.74058e-05
1.06302e-05
3.92902e-05
-2.35845e-05
7.32968e-05
-7.91791e-05
0.000121239
-0.00015654
0.000183864
-0.000254891
0.000260186
-0.000371415
0.000347078
-0.000500876
0.000439499
-0.000636108
0.000531439
-0.000769303
0.000617236
-0.000893615
0.000692757
-0.0010044
0.000756003
-0.00109973
0.000807065
-0.00118009
0.000847555
-0.00124762
0.000879916
-0.00130502
0.000906583
-0.00135548
0.000930321
-0.00139938
-0.0014457
0.000952469
9.02289e-07
1.54257e-05
6.99627e-06
1.79278e-05
2.13667e-05
-3.74026e-06
4.67549e-05
-4.89727e-05
8.54741e-05
-0.000117898
0.000138935
-0.000210001
0.00020694
-0.000322896
0.000287103
-0.000451577
0.000374849
-0.000588623
0.000464234
-0.000725492
0.000549296
-0.000854365
0.000625384
-0.000969703
0.000689944
-0.00106896
0.000742588
-0.00115238
0.000784607
-0.00122211
0.000818212
-0.00128123
0.000845872
-0.00133268
0.000869736
-0.00137935
0.000891883
-0.00142152
-0.00146663
0.000912816
1.43603e-06
1.39897e-05
9.07282e-06
1.0291e-05
2.61217e-05
-2.07891e-05
5.53919e-05
-7.82429e-05
9.89866e-05
-0.000161493
0.000157622
-0.000268636
0.000229878
-0.000395152
0.000311902
-0.000533601
0.000397988
-0.000674708
0.00048191
-0.000809414
0.000558425
-0.00093088
0.000624293
-0.00103557
0.000678541
-0.00112321
0.000722049
-0.00119589
0.000756822
-0.00125688
0.000785221
-0.00130963
0.000809471
-0.00135693
0.000831291
-0.00140116
0.000852262
-0.0014425
-0.00148686
0.000872492
2.06464e-06
1.19251e-05
1.14739e-05
8.81671e-07
3.14938e-05
-4.08089e-05
6.48603e-05
-0.000111609
0.000113233
-0.000209866
0.000176348
-0.000331751
0.000251384
-0.000470188
0.000333162
-0.000615379
0.000415333
-0.00075688
0.000492036
-0.000886117
0.000559219
-0.000998062
0.000615169
-0.00109152
0.000660259
-0.0011683
0.000696221
-0.00123185
0.000725345
-0.001286
0.000749853
-0.00133413
0.000771586
-0.00137866
0.000791847
-0.00142143
0.000811774
-0.00146242
-0.0015064
0.000831313
2.76648e-06
9.1586e-06
1.41232e-05
-1.0475e-05
3.73072e-05
-6.3993e-05
7.48162e-05
-0.000149118
0.000127612
-0.000262662
0.000194205
-0.000398344
0.000270344
-0.000546327
0.000349848
-0.000694884
0.000426312
-0.000833344
0.000494766
-0.000954571
0.000552585
-0.00105588
0.000599467
-0.0011384
0.000636776
-0.00120561
0.000666689
-0.00126176
0.000691467
-0.00131078
0.000713025
-0.00135569
0.0007328
-0.00139844
0.000751736
-0.00144036
0.000770658
-0.00148134
-0.00152517
0.00078943
3.52464e-06
5.63396e-06
1.6954e-05
-2.39044e-05
4.33981e-05
-9.04371e-05
8.49266e-05
-0.000190647
0.000141549
-0.000319284
0.000210386
-0.00046718
0.000285894
-0.000621834
0.000361363
-0.000770354
0.000430884
-0.000902864
0.000490728
-0.00101442
0.000539704
-0.00110486
0.000578646
-0.00117735
0.000609539
-0.0012365
0.000634669
-0.00128689
0.000656076
-0.00133219
0.000675305
-0.00137492
0.000693433
-0.00141657
0.000711128
-0.00145806
0.000728989
-0.0014992
-0.00154304
0.000746854
4.32723e-06
1.30673e-06
1.99097e-05
-3.94869e-05
4.96137e-05
-0.000120141
9.48707e-05
-0.000235904
0.000154508
-0.000378922
0.000224213
-0.000536885
0.000297452
-0.000695073
0.000367511
-0.000840413
0.000429417
-0.00096477
0.000480824
-0.00106582
0.000521807
-0.00114584
0.000554009
-0.00120955
0.000579696
-0.00126219
0.000601038
-0.00130823
0.000619754
-0.0013509
0.000637035
-0.0013922
0.000653662
-0.00143319
0.000670105
-0.0014745
0.00068681
-0.00151591
-0.00155985
0.000703616
5.16565e-06
-3.85892e-06
2.29395e-05
-5.72607e-05
5.58056e-05
-0.000153007
0.000104337
-0.000284436
0.000166007
-0.000440592
0.00023517
-0.000606047
0.00030472
-0.000764623
0.000368433
-0.000904125
0.000422547
-0.00101888
0.000466059
-0.00110934
0.000500046
-0.00117983
0.000526634
-0.00123614
0.000548112
-0.00128366
0.000566398
-0.00132652
0.000582868
-0.00136737
0.00059841
-0.00140775
0.00061358
-0.00144836
0.000628711
-0.00148963
0.000644145
-0.00153134
-0.00157544
0.000659741
6.0325e-06
-9.89142e-06
2.59931e-05
-7.72213e-05
6.18233e-05
-0.000188837
0.000113026
-0.000335638
0.000175638
-0.000503204
0.000242919
-0.000673329
0.000307664
-0.000829368
0.000364522
-0.000960984
0.000411051
-0.00106541
0.000447422
-0.00114571
0.000475417
-0.00120782
0.000497367
-0.00125809
0.000515407
-0.0013017
0.000531145
-0.00134226
0.000545641
-0.00138187
0.000559539
-0.00142164
0.000573235
-0.00146206
0.000586971
-0.00150337
0.000601019
-0.00154539
-0.00158968
0.000615262
6.91893e-06
-1.68103e-05
2.90155e-05
-9.93179e-05
6.75111e-05
-0.000227333
0.000120656
-0.000388784
0.000183082
-0.00056563
0.000247304
-0.00073755
0.000306461
-0.000888525
0.000356329
-0.00101085
0.000395741
-0.00110482
0.000425807
-0.00117577
0.000448733
-0.00123075
0.00046684
-0.00127619
0.000482008
-0.00131687
0.000495532
-0.00135578
0.000508204
-0.00139454
0.000520485
-0.00143392
0.000532658
-0.00147423
0.000544909
-0.00151562
0.000557461
-0.00155794
-0.00160244
0.000570219
7.8139e-06
-2.46243e-05
3.19453e-05
-0.000123449
7.27108e-05
-0.000268098
0.000126983
-0.000443056
0.000188134
-0.000626781
0.000248338
-0.000797755
0.000301448
-0.000941635
0.000344477
-0.00105388
0.000377392
-0.00113774
0.00040198
-0.00120036
0.000420631
-0.0012494
0.000435509
-0.00129107
0.000448204
-0.00132957
0.00045972
-0.0013673
0.000470638
-0.00140546
0.000481286
-0.00144457
0.000491875
-0.00148482
0.000502552
-0.0015263
0.000513503
-0.00156889
-0.0016136
0.000524658
8.70344e-06
-3.33277e-05
3.47147e-05
-0.000149461
7.72691e-05
-0.000310653
0.00013181
-0.000497596
0.000190697
-0.000685669
0.000246173
-0.000853231
0.000293062
-0.000988524
0.000329606
-0.00109042
0.000356702
-0.00116484
0.000376568
-0.00122022
0.000391591
-0.00126442
0.000403699
-0.00130318
0.000414184
-0.00134005
0.00042381
-0.00137692
0.000432994
-0.00141465
0.000441975
-0.00145355
0.000450913
-0.00149376
0.000459931
-0.00153531
0.000469188
-0.00157815
-0.00162304
0.000478632
9.57087e-06
-4.28986e-05
3.72529e-05
-0.000177143
8.10469e-05
-0.000354447
0.000135001
-0.000551551
0.000190784
-0.000741451
0.000241064
-0.00090351
0.000281786
-0.00102925
0.000312318
-0.00112096
0.000334267
-0.00118678
0.000350065
-0.00123602
0.00036197
-0.00127633
0.000371633
-0.00131284
0.000380076
-0.0013485
0.000387869
-0.00138471
0.000395312
-0.00142209
0.000402581
-0.00146082
0.000409802
-0.00150098
0.000417083
-0.00154259
0.000424562
-0.00158563
-0.00163068
0.0004322
1.03976e-05
-5.32962e-05
3.94896e-05
-0.000206235
8.39288e-05
-0.000398886
0.00013649
-0.000604112
0.000188496
-0.000793458
0.000233333
-0.000948347
0.000268107
-0.00106402
0.000293157
-0.00114601
0.000310581
-0.00120421
0.000322855
-0.0012483
0.000332026
-0.0012855
0.000339466
-0.00132028
0.000345968
-0.001355
0.000351948
-0.0013907
0.000357626
-0.00142777
0.000363135
-0.00146633
0.000368579
-0.00150642
0.000374053
-0.00154807
0.000379677
-0.00159125
-0.00163642
0.000385423
1.11633e-05
-6.44595e-05
4.13569e-05
-0.000236428
8.58257e-05
-0.000443355
0.000136268
-0.000654554
0.000184007
-0.000841197
0.000223341
-0.00098768
0.000252498
-0.00109318
0.000272604
-0.00116611
0.000286051
-0.00121766
0.000295236
-0.00125748
0.000301952
-0.00129221
0.000307315
-0.00132565
0.000311928
-0.00135961
0.000316094
-0.00139486
0.000319975
-0.00143165
0.000323676
-0.00147003
0.000327287
-0.00151003
0.00033089
-0.00155167
0.000334591
-0.00159496
-0.0016402
0.000338368
1.18468e-05
-7.63063e-05
4.27964e-05
-0.000267378
8.66877e-05
-0.000487246
0.000134392
-0.000702259
0.000177535
-0.00088434
0.000211443
-0.00102159
0.000235368
-0.0011171
0.000251035
-0.00118178
0.000260969
-0.00122759
0.0002674
-0.00126391
0.000271862
-0.00129668
0.00027524
-0.00132902
0.000277988
-0.00136236
0.000280328
-0.0013972
0.00028238
-0.0014337
0.000284232
-0.00147188
0.00028596
-0.00151176
0.000287638
-0.00155335
0.000289358
-0.00159668
-0.00164195
0.000291102
1.24292e-05
-8.87354e-05
4.37655e-05
-0.000298714
8.65051e-05
-0.000529986
0.000130967
-0.000746721
0.000169332
-0.000922705
0.00019799
-0.00105025
0.000217087
-0.0011362
0.000228773
-0.00119347
0.000235574
-0.00123439
0.000239507
-0.00126784
0.000241851
-0.00129902
0.000243299
-0.00133047
0.00024419
-0.00136325
0.000244685
-0.0013977
0.00024488
-0.00143389
0.000244844
-0.00147185
0.000244646
-0.00151156
0.000244353
-0.00155306
0.000244043
-0.00159637
-0.0016416
0.000243699
1.28946e-05
-0.00010163
4.42388e-05
-0.000330058
8.53018e-05
-0.000571049
0.000126132
-0.000787551
0.000159655
-0.000956228
0.000183307
-0.0010739
0.00019798
-0.00115087
0.000206088
-0.00120157
0.000210066
-0.00123837
0.000211689
-0.00126947
0.000212008
-0.00129934
0.000211558
-0.00133002
0.000210587
-0.00136228
0.000209218
-0.00139633
0.000207524
-0.0014322
0.000205567
-0.00146989
0.000203405
-0.0015094
0.000201099
-0.00155075
0.000198716
-0.00159398
-0.00163913
0.000196242
1.32359e-05
-0.000114866
4.42137e-05
-0.000361036
8.31303e-05
-0.000609965
0.000120039
-0.00082446
0.000148747
-0.000984936
0.000167676
-0.00109283
0.000178307
-0.0011615
0.000183183
-0.00120645
0.000184582
-0.00123977
0.000184034
-0.00126892
0.000182388
-0.00129769
0.000180053
-0.00132769
0.000177212
-0.00135944
0.000173958
-0.00139307
0.000170351
-0.00142859
0.000166443
-0.00146598
0.000162284
-0.00150524
0.000157929
-0.00154639
0.000153435
-0.00158949
0.000148797
-0.00163449
-4.27394e-07
5.37335e-05
-5.33061e-05
-2.65104e-06
0.000130389
-0.000128165
-7.09528e-06
0.000186297
-0.000181852
-1.36431e-05
0.000225157
-0.00021861
-2.18437e-05
0.000251289
-0.000243088
-3.11131e-05
0.000268816
-0.000259546
-4.08582e-05
0.000280798
-0.000271053
-5.05235e-05
0.000288861
-0.000279196
-5.95845e-05
0.000293251
-0.00028419
-6.75227e-05
0.000293133
-0.000285195
-7.38061e-05
0.000286955
-0.000280672
-7.78909e-05
0.000272784
-0.0002687
-7.92448e-05
0.000248568
-0.000247214
-7.73743e-05
0.000212341
-0.000214211
-7.18459e-05
0.000162407
-0.000167935
-6.23027e-05
9.74573e-05
-0.000107001
-4.84449e-05
1.67222e-05
-3.05799e-05
-2.98007e-05
-7.9957e-05
6.13127e-05
-6.07202e-06
-0.000191744
0.000168015
-0.000317649
2.33856e-05
0.000288192
3.384e-07
5.33951e-05
-1.86788e-07
0.000130914
-2.37358e-06
0.000188483
-6.32513e-06
0.000229109
-1.16891e-05
0.000256653
-1.78785e-05
0.000275005
-2.42359e-05
0.000287155
-3.0119e-05
0.000294744
-3.4927e-05
0.000298059
-3.80966e-05
0.000296302
-3.90975e-05
0.000287956
-3.74383e-05
0.000271125
-3.26952e-05
0.000243825
-2.45191e-05
0.000204165
-1.26523e-05
0.00015054
3.09278e-06
8.17123e-05
2.29047e-05
-3.08975e-06
4.71028e-05
-0.000104155
7.59231e-05
-0.000220564
-0.000351886
0.00011016
1.07201e-06
5.2323e-05
2.23451e-06
0.000129752
2.37209e-06
0.000188346
1.16086e-06
0.00023032
-1.15518e-06
0.000258969
-4.00273e-06
0.000277852
-6.67671e-06
0.000289829
-8.46272e-06
0.00029653
-8.69619e-06
0.000298293
-6.78296e-06
0.000294389
-2.2079e-06
0.000283381
5.45326e-06
0.000263464
1.65353e-05
0.000232743
3.12399e-05
0.00018946
4.9675e-05
0.000132105
7.19054e-05
5.94819e-05
9.80001e-05
-2.91845e-05
0.000128245
-0.0001344
0.000162788
-0.000255107
-0.000391632
0.000202534
1.74496e-06
5.05781e-05
4.53e-06
0.000126967
6.97929e-06
0.000185897
8.57172e-06
0.000228728
9.43331e-06
0.000258107
1.01e-05
0.000277186
1.13005e-05
0.000288629
1.38004e-05
0.000294031
1.83106e-05
0.000293782
2.54438e-05
0.000287256
3.56943e-05
0.000273131
4.94266e-05
0.000249732
6.68635e-05
0.000215306
8.81052e-05
0.000168218
0.000113155
0.000107056
0.000142008
3.06285e-05
0.0001747
-6.18762e-05
0.000211521
-0.000171221
0.000252592
-0.000296179
-0.000437844
0.000298805
2.33152e-06
4.82466e-05
6.61126e-06
0.000122687
1.12803e-05
0.000181228
1.565e-05
0.000224358
1.97232e-05
0.000254034
2.39762e-05
0.000272933
2.91318e-05
0.000283473
3.59797e-05
0.000287183
4.5257e-05
0.000284505
5.75822e-05
0.000274931
7.34231e-05
0.00025729
9.30865e-05
0.000230068
0.000116722
0.00019167
0.000144357
0.000140584
0.000175936
7.54767e-05
0.000211464
-4.90013e-06
0.000251023
-0.000101435
0.000294949
-0.000215146
0.000343357
-0.000344587
-0.000491477
0.00039699
2.80986e-06
4.54367e-05
8.40047e-06
0.000117096
1.51159e-05
0.000174512
2.21398e-05
0.000217334
2.93559e-05
0.000246818
3.71598e-05
0.000265129
4.62385e-05
0.000274394
5.73758e-05
0.000276045
7.13116e-05
0.000270569
8.86568e-05
0.000257586
0.000109853
0.000236094
0.000135163
0.000204758
0.000164693
0.000162141
0.000198438
0.000106839
0.000236373
3.75411e-05
0.000278563
-4.709e-05
0.000325243
-0.000148114
0.000376781
-0.000266685
0.000433255
-0.00040106
-0.000553228
0.000495006
3.16381e-06
4.22729e-05
9.83242e-06
0.000110428
1.8343e-05
0.000166002
2.78012e-05
0.000207876
3.7984e-05
0.000236635
4.91924e-05
0.000253921
6.20496e-05
0.000261537
7.73033e-05
0.000260792
9.56721e-05
0.000252201
0.000117747
0.00023551
0.000143946
0.000209895
0.00017451
0.000174194
0.000209537
0.000127114
0.000249059
6.73167e-05
0.000293152
-6.55222e-06
0.000342047
-9.59842e-05
0.000396173
-0.00020224
0.000455861
-0.000326373
0.000521008
-0.000466207
-0.000623334
0.000591113
3.3829e-06
3.889e-05
1.08582e-05
0.000102952
2.08446e-05
0.000156015
3.24255e-05
0.000196295
4.52932e-05
0.000223767
5.96491e-05
0.000239565
7.60304e-05
0.000245156
9.51224e-05
0.0002417
0.000117601
0.000229722
0.000144028
0.000209083
0.000174806
0.000179116
0.000210185
0.000138815
0.000250314
8.69849e-05
0.000295338
2.22932e-05
0.000345532
-5.67465e-05
0.000401362
-0.000151815
0.000463429
-0.000264307
0.000531819
-0.000394764
0.000605977
-0.000540365
-0.000701302
0.000683945
3.46336e-06
3.54266e-05
1.14491e-05
9.49668e-05
2.2539e-05
0.000144925
3.58519e-05
0.000182982
5.10265e-05
0.000208593
6.81694e-05
0.000222422
8.772e-05
0.000225605
0.000110282
0.000219138
0.000136474
0.00020353
0.000166831
0.000178727
0.00020176
0.000144187
0.000241567
9.90087e-05
0.000286523
4.20285e-05
0.000336997
-2.81808e-05
0.000393549
-0.000113298
0.000456857
-0.000215122
0.000527514
-0.000334965
0.000604991
-0.00047224
0.000687887
-0.000623261
-0.000785613
0.000772198
3.40759e-06
3.20191e-05
1.15983e-05
8.67761e-05
2.33872e-05
0.000133136
3.79839e-05
0.000168386
5.50102e-05
0.000191567
7.44948e-05
0.000202937
9.67795e-05
0.000203321
0.000122381
0.000193536
0.000151863
0.000174049
0.000185745
0.000144844
0.000224485
0.000105447
0.000268511
5.49823e-05
0.000318324
-7.7837e-06
0.000374594
-8.44513e-05
0.000438173
-0.000176878
0.000509776
-0.000286725
0.000589589
-0.000414778
0.000675957
-0.000558608
0.000766244
-0.000713549
-0.000873534
0.000854165
3.22453e-06
2.87945e-05
1.1323e-05
7.86776e-05
2.33995e-05
0.00012106
3.88041e-05
0.000152981
5.71821e-05
0.000173189
7.85115e-05
0.000181608
0.000103053
0.000178779
0.000131252
0.000165337
0.000163636
0.000141664
0.000200757
0.000107724
0.000243185
6.30184e-05
0.000291566
6.60209e-06
0.000346714
-6.29318e-05
0.000409614
-0.000147352
0.000481225
-0.000248488
0.000561902
-0.000367403
0.000650829
-0.000503704
0.000744774
-0.000652553
0.000839686
-0.00080846
-0.000961292
0.000927443
2.92886e-06
2.58657e-05
1.0664e-05
7.09425e-05
2.26397e-05
0.000109084
3.83871e-05
0.000137234
5.76173e-05
0.000153958
8.02959e-05
0.000158929
0.000106639
0.000152436
0.000137058
0.000134918
0.000172098
0.000106624
0.000212411
6.74111e-05
0.000258766
1.66637e-05
0.000312116
-4.67482e-05
0.000373589
-0.000124404
0.000444295
-0.000218058
0.00052489
-0.000329083
0.000614777
-0.000457289
0.000711538
-0.000600465
0.000810249
-0.000751265
0.000905696
-0.000903907
-0.00104469
0.000989091
2.5418e-06
2.33239e-05
9.68764e-06
6.37967e-05
2.12285e-05
9.75432e-05
3.69099e-05
0.000121552
5.65513e-05
0.000134317
8.01563e-05
0.000135324
0.000107953
0.000124639
0.000140387
0.000102484
0.000178101
6.89099e-05
0.000221931
2.35816e-05
0.000272932
-3.43378e-05
0.000332351
-0.000106166
0.000401437
-0.000193491
0.000481019
-0.000297639
0.000570829
-0.000418894
0.000668717
-0.000555177
0.000770407
-0.000702155
0.00086971
-0.000850568
0.000960978
-0.000995175
-0.00112001
0.00103631
2.09051e-06
2.12334e-05
8.48397e-06
5.74032e-05
1.93432e-05
8.6684e-05
3.46548e-05
0.000106241
5.4392e-05
0.00011458
7.86588e-05
0.000111057
0.000107773
9.5524e-05
0.000142304
6.7953e-05
0.000183083
2.8131e-05
0.000231211
-2.4546e-05
0.000288008
-9.11355e-05
0.000354826
-0.000172984
0.000432629
-0.000271294
0.000521352
-0.000386362
0.000619192
-0.000516734
0.000722166
-0.000658151
0.000824464
-0.000804454
0.000919578
-0.000945682
0.0010024
-0.001078
-0.00118491
0.0010673
1.60966e-06
1.96237e-05
7.16854e-06
5.18443e-05
1.72171e-05
7.66354e-05
3.20073e-05
9.14503e-05
5.17156e-05
9.48714e-05
7.66197e-05
8.61535e-05
0.000107218
6.49257e-05
0.000144296
3.08746e-05
0.000188948
-1.65201e-05
0.00024252
-7.81181e-05
0.000306417
-0.000155033
0.000381696
-0.000248263
0.000468454
-0.000358052
0.000565138
-0.000483046
0.000668106
-0.000619702
0.00077183
-0.000761875
0.000869865
-0.000902488
0.00095651
-0.00103233
0.00102807
-0.00114956
-0.00123878
0.00108194
1.1385e-06
1.84852e-05
5.87494e-06
4.71079e-05
1.51258e-05
6.73845e-05
2.94328e-05
7.71433e-05
4.92285e-05
7.50757e-05
7.50413e-05
6.03407e-05
0.000107636
3.23314e-05
0.000148079
-9.56876e-06
0.000197711
-6.61523e-05
0.000257957
-0.000138364
0.000329933
-0.000227009
0.000413858
-0.000332188
0.000508394
-0.000452588
0.000610198
-0.00058485
0.000714033
-0.000723537
0.000813664
-0.000861506
0.000903143
-0.000991967
0.000978498
-0.00110768
0.00103785
-0.00120891
-0.00128261
0.00108169
7.19774e-07
1.77654e-05
4.7469e-06
4.30808e-05
1.33668e-05
5.87646e-05
2.74351e-05
6.3075e-05
4.76928e-05
5.4818e-05
7.4985e-05
3.30485e-05
0.000110394
-3.07756e-06
0.000155256
-5.44304e-05
0.000211005
-0.000121901
0.000278807
-0.000206166
0.000358996
-0.000307198
0.000450431
-0.000423623
0.000550039
-0.000552196
0.000652888
-0.000687699
0.000752905
-0.000823553
0.000844225
-0.000952826
0.000922346
-0.00107009
0.000985456
-0.00117079
0.00103336
-0.00125682
-0.00131841
0.00106916
3.939e-07
1.73715e-05
3.92181e-06
3.95529e-05
1.22251e-05
5.04613e-05
2.64946e-05
4.88056e-05
4.78196e-05
3.3493e-05
7.73964e-05
3.47173e-06
0.00011661
-4.22907e-05
0.000166931
-0.000104752
0.000229599
-0.000184569
0.00030508
-0.000281647
0.000392443
-0.000394561
0.000488893
-0.000520073
0.000589772
-0.000653076
0.00068923
-0.000787156
0.000781369
-0.000915693
0.000861616
-0.00103307
0.000927388
-0.00113586
0.000978939
-0.00122234
0.00101724
-0.00129512
-0.00134854
0.00104736
1.95547e-07
1.7176e-05
3.51587e-06
3.62325e-05
1.19388e-05
4.20384e-05
2.70015e-05
3.37428e-05
5.01565e-05
1.0338e-05
8.29319e-05
-2.93037e-05
0.000126903
-8.62619e-05
0.000183432
-0.000161281
0.000253174
-0.000254311
0.000335458
-0.000363931
0.000427793
-0.000486896
0.000525814
-0.000618094
0.000623858
-0.00075112
0.000716073
-0.000879372
0.000797644
-0.000997263
0.00086578
-0.00110121
0.000919778
-0.00118986
0.000961424
-0.00126399
0.00099224
-0.00132594
-0.00137514
0.00101885
1.46902e-07
3.60653e-06
1.26642e-05
2.91974e-05
5.49989e-05
9.18388e-05
0.000141282
0.00020425
0.000280414
0.000367659
0.000461948
0.000557815
0.000649415
0.000731756
0.000801653
0.000858134
0.000902024
0.000935777
0.000960503
0.00098521
4.94185e-05
-0.000397872
0.000371839
7.54466e-05
-0.000498351
0.000472323
0.000100702
-0.000592567
0.000567312
0.000123758
-0.000677391
0.000654335
0.000143057
-0.00075138
0.000732081
0.00015713
-0.000814079
0.000800006
0.000164911
-0.000866211
0.00085843
0.000166244
-0.000909469
0.000908136
0.000162557
-0.000945511
0.000949198
0.000157179
-0.000974445
0.000979823
0.000154941
-0.000993389
0.000995627
0.000160951
-0.000996139
0.000990129
0.000178958
-0.000974652
0.000956644
0.0002102
-0.000921946
0.000890705
0.00025338
-0.000834788
0.000791608
0.000305646
-0.000714535
0.000662268
0.000363764
-0.000565997
0.00050788
0.000424857
-0.000395606
0.000334512
0.000486704
-0.000210223
0.000148377
0.00054759
-1.6744e-05
-4.41424e-05
0.000606208
0.000177588
-0.000236206
0.000661355
0.000365027
-0.000420174
0.000711777
0.000537655
-0.000588078
0.000756198
0.000688324
-0.000732745
0.000793546
0.000811953
-0.000849301
0.000823196
0.00090654
-0.000936191
0.000845052
0.000973447
-0.000995303
0.000859492
0.00101688
-0.00103132
0.000867344
0.00104248
-0.00105033
0.000869809
0.00105553
-0.00105799
0.000868012
0.00106006
-0.00105827
0.00086219
0.00106043
-0.00105461
0.000851354
0.00106359
-0.00105275
0.000834207
0.00107809
-0.00106094
0.000810947
0.00110794
-0.00108468
0.000784517
0.00114505
-0.00111862
0.000760131
0.00116732
-0.00114293
0.000743232
0.00114569
-0.00112879
0.000737404
0.00105652
-0.00105069
0.000743615
0.000890882
-0.000897093
0.000760816
0.000656033
-0.000673234
0.000786886
0.000371156
-0.000397227
0.000819172
6.19527e-05
-9.42391e-05
0.00085467
-0.000243913
0.000208416
0.000890189
-0.000521094
0.000485575
0.000922755
-0.000750929
0.000718362
0.000950088
-0.00092434
0.000897007
0.000970861
-0.00104227
0.0010215
0.000984676
-0.00111372
0.00109991
0.000991967
-0.00115184
0.00114455
0.000993864
-0.00116897
0.00116708
0.000991662
-0.00117354
0.00117575
0.000985878
-0.00117203
0.00117781
0.000975714
-0.00117389
0.00118405
0.000959781
-0.00119165
0.00120758
0.000937729
-0.00123163
0.00125368
0.00091136
-0.00128182
0.00130819
0.000884219
-0.00130959
0.00133673
0.000860072
-0.00127418
0.00129833
0.000841767
-0.00114593
0.00116424
0.000831149
-0.000918026
0.000928644
0.000829343
-0.000606342
0.000608148
0.00083667
-0.000242741
0.000235413
0.000852257
0.000133026
-0.000148613
0.000873834
0.000482115
-0.000503692
0.000898074
0.000775311
-0.000799552
0.000921597
0.000998443
-0.00102197
0.000942005
0.00115148
-0.00117189
0.000957994
0.00124431
-0.0012603
0.00096845
0.00129494
-0.0013054
0.000971825
0.00132914
-0.00133252
0.000966778
0.00137328
-0.00136824
0.000953447
0.00143828
-0.00142495
0.000933863
0.00150643
-0.00148684
0.00091104
0.0015355
-0.00151268
0.000887844
0.00147923
-0.00145604
0.000866789
0.0013083
-0.00128724
0.000850397
0.00101915
-0.00100276
0.000841054
0.000632669
-0.000623327
0.000840331
0.000188852
-0.000188129
0.000848356
-0.000261228
0.000253203
0.000863672
-0.000666845
0.000651529
0.000883339
-0.000990196
0.000970528
0.000903109
-0.00121728
0.00119751
0.000918006
-0.00136251
0.00134762
0.000923823
-0.00146008
0.00145426
0.000918868
-0.00154084
0.00154579
0.000904454
-0.00160852
0.00162293
0.000883771
-0.00163507
0.00165576
0.000860423
-0.00157857
0.00160191
0.000837947
-0.00140692
0.0014294
0.000819974
-0.00111111
0.00112908
0.00080991
-0.000707681
0.000717746
0.00080996
-0.000236385
0.000236336
0.000820027
0.000247703
-0.00025777
0.000837104
0.000689945
-0.000707023
0.000855682
0.00105474
-0.00107332
0.000869567
0.00133514
-0.00134902
0.000874413
0.00154373
-0.00154858
0.00086925
0.00169031
-0.00168515
0.000856112
0.00176444
-0.0017513
0.00083855
0.00173617
-0.00171861
0.000820515
0.00157223
-0.00155419
0.000805952
0.00125537
-0.00124081
0.000798308
0.000798627
-0.000790982
0.000799426
0.000250199
-0.000251317
0.000808323
-0.00031659
0.000307693
0.000820781
-0.000828963
0.000816505
0.000830787
-0.00124238
0.00123238
0.000833646
-0.00154668
0.00154382
0.0008284
-0.00174255
0.0017478
0.000817377
-0.00181441
0.00182543
0.000804053
-0.0017304
0.00174372
0.000791882
-0.00146612
0.0014783
0.000784129
-0.00102672
0.00103447
0.000782865
-0.000455387
0.000456651
0.000787223
0.000174264
-0.000178622
0.000793214
0.000780708
-0.000786699
0.000796271
0.00130067
-0.00130372
0.000794351
0.00168477
-0.00168285
0.000788323
0.00189156
-0.00188554
0.000780019
0.00187032
-0.00186202
0.00077119
0.00160828
-0.00159945
0.000763508
0.00111133
-0.00110365
0.000758063
0.000450277
-0.000444832
0.000753806
-0.000255167
0.000259424
0.000748931
-0.000976983
0.000981858
0.000742531
-0.00135277
0.00135917
0.000734586
-0.00185191
0.00185986
-0.00132909
0.00133792
0.000131797
-0.00041951
0.000153243
-0.000519797
0.000173705
-0.000613029
0.000192041
-0.000695728
0.000206853
-0.000766191
0.000216641
-0.000823867
0.000219959
-0.00086953
0.000215826
-0.000905336
0.000204482
-0.000934167
0.000188197
-0.00095816
0.000171545
-0.000976736
0.000160609
-0.000985203
0.000161178
-0.000975221
0.000176785
-0.000937554
0.000207776
-0.000865779
0.000251873
-0.000758632
0.000305605
-0.000619728
0.000365511
-0.000455512
0.00042877
-0.000273482
0.000493103
-8.10771e-05
0.000556687
0.000114004
0.000617845
0.000303869
0.000674948
0.000480553
0.000726398
0.000636874
0.000770827
0.000767524
0.000807318
0.00087005
0.00083552
0.000945245
0.000855679
0.000996717
0.000868628
0.00102953
0.000875609
0.00104855
0.000877678
0.00105799
0.000874971
0.00106314
0.000866627
0.00107193
0.000851864
0.00109285
0.000831537
0.00112827
0.000808901
0.00116769
0.000788803
0.00118742
0.000775772
0.00115872
0.000772425
0.00105987
0.000779171
0.000884136
0.000794914
0.00064029
0.000817843
0.000348228
0.000845769
3.40267e-05
0.000876159
-0.000274304
0.00090625
-0.000551185
0.000933415
-0.000778094
0.000955655
-0.00094658
0.000971857
-0.00105847
0.000981724
-0.00112359
0.000985647
-0.00115577
0.000984626
-0.00116795
0.000979884
-0.0011688
0.000971933
-0.00116408
0.000959886
-0.00116184
0.000942083
-0.00117385
0.000917896
-0.00120744
0.000889188
-0.00125312
0.000860037
-0.00128043
0.000834952
-0.0012491
0.000817273
-0.00112825
0.000808874
-0.000909626
0.000810562
-0.000608031
0.000822179
-0.000254357
0.000842325
0.00011288
0.000868271
0.000456169
0.00089643
0.000747152
0.000923387
0.000971487
0.000946812
0.00112805
0.000965427
0.00122569
0.000978158
0.00128221
0.000983646
0.00132366
0.000980848
0.00137608
0.00097002
0.0014491
0.000952884
0.00152356
0.000931831
0.00155656
0.000909162
0.0015019
0.000887165
0.00133029
0.000868451
0.00103787
0.000855687
0.000645433
0.000850844
0.000193695
0.000854503
-0.000264886
0.000865629
-0.000677972
0.000881637
-0.0010062
0.000898506
-0.00123415
0.000911242
-0.00137525
0.000915337
-0.00146417
0.000908769
-0.00153427
0.000892824
-0.00159257
0.000871029
-0.00161328
0.000847414
-0.00155495
0.000825734
-0.00138524
0.000809579
-0.00109496
0.00080215
-0.000700252
0.000805326
-0.000239561
0.000818574
0.000234455
0.000838464
0.000670055
0.00085927
0.00103394
0.000874896
0.00131951
0.00088124
0.00153739
0.000877434
0.00169412
0.000865335
0.00177653
0.000848182
0.00175332
0.000829712
0.0015907
0.000813865
0.00127122
0.000804254
0.000808237
0.000803047
0.000251406
0.00080969
-0.000323232
0.000820318
-0.00083959
0.000828964
-0.00125103
0.000830719
-0.00154843
0.000824507
-0.00173634
0.000812865
-0.00180276
0.000799576
-0.00171711
0.000788143
-0.00145469
0.000781575
-0.00102015
0.00078159
-0.000455403
0.000787084
0.000168771
0.000794074
0.000773718
0.000798156
0.00129659
0.000797312
0.00168561
0.000792134
0.00189674
0.000784145
0.00187831
0.000775089
0.00161733
0.00076687
0.00111955
0.000760889
0.000456258
0.000756023
-0.000250302
0.000750562
-0.000971522
0.000743428
-0.00134563
0.000735078
-0.00184356
-0.00132095
0.000219616
-0.000436591
0.000236151
-0.000536332
0.000251392
-0.00062827
0.00026448
-0.000708816
0.000274353
-0.000776064
0.00027979
-0.000829304
0.0002794
-0.00086914
0.000271756
-0.000897691
0.000255952
-0.000918363
0.000232638
-0.000934846
0.000205039
-0.000949136
0.000179067
-0.000959231
0.000161956
-0.000958109
0.000159822
-0.000935419
0.000175557
-0.000881514
0.000208372
-0.000791448
0.000255025
-0.000666381
0.000311574
-0.000512061
0.00037443
-0.000336339
0.000440734
-0.000147381
0.000508073
4.66647e-05
0.000574306
0.000237636
0.000637392
0.000417466
0.000695387
0.00057888
0.000746595
0.000716315
0.00078979
0.000826855
0.00082436
0.000910675
0.000850404
0.000970673
0.000868716
0.00101122
0.000880493
0.00103677
0.00088668
0.00105181
0.00088736
0.00106246
0.000881912
0.00107738
0.0008701
0.00110467
0.000853315
0.00114505
0.000834911
0.00118609
0.000819207
0.00120312
0.000809812
0.00116811
0.000808511
0.00106117
0.000815302
0.000877346
0.000829125
0.000626466
0.00084849
0.000328862
0.000871678
1.08391e-05
0.000896652
-0.000299278
0.000921104
-0.000575636
0.000942771
-0.000799762
0.000959926
-0.000963735
0.000971647
-0.00107019
0.000977722
-0.00112967
0.000978479
-0.00115652
0.00097476
-0.00116423
0.000967687
-0.00116173
0.000957797
-0.00115419
0.000944187
-0.00114823
0.000924958
-0.00115462
0.000899128
-0.00118161
0.000868465
-0.00122245
0.00083746
-0.00124943
0.000811374
-0.00122301
0.000794128
-0.00111101
0.000787692
-0.00090319
0.000792562
-0.000612901
0.000808095
-0.00026989
0.000832406
8.8569e-05
0.000862374
0.000426201
0.000894206
0.00071532
0.000924462
0.000941231
0.000950849
0.00110167
0.000972096
0.00120445
0.000987188
0.00126712
0.000994986
0.00131586
0.000994728
0.00137634
0.000986717
0.00145712
0.000972307
0.00153797
0.000953249
0.00157561
0.000931294
0.00152386
0.000908494
0.00135309
0.00088751