/*--------------------------------*- C++ -*----------------------------------*\
| =========                 |                                                 |
| \\      /  F ield         | OpenFOAM: The Open Source CFD Toolbox           |
|  \\    /   O peration     | Version:  5.0                                   |
|   \\  /    A nd           | Web:      www.OpenFOAM.org                      |
|    \\/     M anipulation  |                                                 |
\*---------------------------------------------------------------------------*/
FoamFile
{
    version     2.0;
    format      ascii;
    class       volScalarField;
    location    "7";
    object      pMean;
}
// * * * * * * * * * * * * * * * * * * * * * * * * * * * * * * * * * * * * * //

dimensions      [0 2 -2 0 0 0 0];

internalField   nonuniform List<scalar> 
24400
(
-0.391692
-0.389391
-0.386111
-0.382289
-0.378268
-0.374243
-0.370222
-0.366022
-0.361297
-0.355594
-0.348456
-0.339535
-0.328679
-0.315968
-0.301658
-0.286155
-0.269789
-0.253125
-0.235857
-0.219502
-0.396483
-0.393709
-0.389929
-0.385644
-0.381171
-0.376668
-0.372086
-0.367175
-0.361536
-0.354705
-0.346281
-0.33603
-0.323946
-0.310236
-0.295241
-0.279385
-0.26298
-0.246524
-0.229775
-0.21432
-0.401847
-0.398538
-0.394211
-0.389436
-0.384485
-0.379463
-0.374246
-0.368512
-0.361821
-0.353731
-0.343934
-0.332338
-0.319083
-0.304485
-0.288928
-0.272824
-0.25645
-0.240231
-0.223932
-0.208874
-0.407806
-0.403898
-0.398974
-0.393671
-0.388197
-0.382581
-0.376613
-0.369902
-0.36199
-0.3525
-0.341256
-0.328325
-0.31398
-0.29861
-0.282611
-0.266355
-0.250066
-0.234093
-0.218194
-0.203514
-0.414374
-0.409806
-0.404233
-0.39836
-0.392299
-0.38599
-0.379129
-0.371268
-0.361972
-0.350972
-0.338254
-0.324044
-0.30872
-0.292702
-0.276365
-0.260023
-0.243846
-0.22811
-0.212562
-0.198212
-0.421558
-0.416276
-0.410006
-0.403513
-0.396788
-0.38966
-0.381736
-0.372538
-0.361701
-0.34911
-0.334929
-0.319522
-0.303331
-0.286773
-0.270178
-0.253794
-0.237739
-0.222222
-0.206989
-0.192945
-0.42936
-0.423317
-0.416307
-0.409137
-0.401649
-0.393549
-0.384366
-0.373637
-0.361124
-0.346899
-0.331299
-0.314792
-0.297844
-0.280838
-0.264045
-0.247644
-0.23171
-0.216392
-0.201445
-0.187678
-0.437771
-0.43093
-0.423141
-0.41523
-0.406856
-0.397598
-0.386939
-0.374492
-0.360195
-0.344328
-0.327378
-0.309874
-0.292268
-0.274888
-0.257936
-0.241534
-0.225714
-0.210578
-0.195889
-0.182375
-0.446771
-0.439107
-0.4305
-0.421768
-0.412355
-0.401726
-0.389363
-0.375025
-0.358874
-0.341392
-0.323177
-0.304777
-0.286599
-0.2689
-0.251819
-0.235421
-0.219707
-0.204736
-0.190288
-0.177006
-0.456319
-0.447818
-0.438356
-0.428703
-0.418069
-0.405826
-0.391533
-0.375161
-0.357124
-0.338082
-0.318698
-0.299495
-0.280815
-0.262841
-0.245651
-0.229261
-0.213646
-0.198828
-0.184606
-0.171539
-0.466357
-0.457015
-0.446655
-0.435958
-0.423886
-0.409773
-0.393338
-0.374828
-0.354912
-0.334385
-0.313929
-0.294009
-0.274886
-0.256672
-0.239387
-0.223009
-0.207489
-0.192817
-0.178809
-0.165946
-0.476796
-0.466621
-0.455312
-0.443419
-0.429666
-0.413423
-0.394661
-0.373953
-0.3522
-0.330281
-0.308848
-0.288287
-0.268773
-0.250347
-0.232982
-0.216621
-0.201196
-0.186666
-0.172869
-0.1602
-0.487521
-0.476531
-0.464209
-0.450941
-0.435241
-0.416617
-0.395388
-0.372469
-0.34895
-0.325739
-0.303423
-0.282289
-0.262429
-0.24382
-0.226391
-0.210056
-0.194729
-0.180343
-0.166756
-0.154277
-0.498384
-0.486604
-0.473194
-0.458341
-0.440419
-0.419192
-0.395406
-0.370305
-0.345116
-0.320722
-0.297611
-0.27597
-0.255806
-0.237042
-0.219568
-0.203273
-0.188051
-0.173817
-0.160443
-0.148154
-0.509207
-0.496669
-0.482077
-0.465408
-0.444992
-0.420983
-0.394603
-0.367393
-0.340648
-0.31518
-0.291361
-0.269275
-0.248852
-0.229963
-0.212467
-0.196229
-0.181127
-0.167055
-0.153902
-0.141806
-0.51978
-0.506522
-0.490639
-0.471908
-0.44875
-0.421832
-0.392875
-0.363661
-0.335488
-0.309058
-0.284618
-0.262148
-0.241512
-0.222535
-0.205045
-0.188886
-0.173922
-0.160028
-0.147108
-0.135212
-0.529865
-0.515928
-0.498633
-0.477592
-0.45148
-0.42159
-0.390128
-0.359044
-0.329582
-0.302307
-0.277332
-0.254545
-0.233746
-0.21472
-0.197269
-0.181218
-0.166415
-0.152721
-0.140047
-0.12836
-0.539198
-0.524618
-0.505774
-0.482182
-0.452963
-0.420114
-0.386279
-0.353495
-0.322898
-0.294897
-0.26948
-0.246444
-0.225537
-0.206507
-0.189133
-0.173221
-0.158604
-0.145134
-0.132724
-0.121257
-0.547485
-0.53228
-0.511724
-0.485367
-0.452967
-0.417258
-0.38124
-0.346955
-0.315388
-0.286787
-0.26102
-0.237809
-0.216851
-0.197866
-0.180609
-0.16487
-0.15047
-0.13725
-0.125123
-0.113895
-0.554414
-0.538604
-0.516192
-0.486906
-0.451309
-0.412871
-0.374865
-0.339267
-0.306885
-0.277806
-0.251786
-0.228478
-0.207536
-0.188652
-0.171562
-0.156039
-0.141891
-0.128955
-0.117137
-0.106174
-0.356636
-0.358289
-0.359496
-0.360606
-0.362192
-0.364432
-0.367347
-0.370886
-0.374968
-0.379488
-0.384315
-0.389285
-0.394192
-0.398785
-0.402775
-0.405845
-0.407672
-0.407952
-0.406395
-0.402681
-0.356818
-0.358436
-0.359623
-0.360722
-0.362301
-0.364529
-0.367423
-0.370929
-0.374959
-0.379401
-0.384115
-0.388929
-0.393626
-0.397948
-0.401598
-0.404257
-0.405607
-0.405346
-0.403176
-0.39868
-0.357216
-0.358755
-0.35989
-0.360962
-0.362512
-0.364704
-0.367549
-0.370984
-0.37491
-0.379204
-0.383711
-0.388242
-0.392566
-0.39641
-0.399465
-0.401404
-0.401919
-0.40071
-0.397469
-0.391565
-0.357815
-0.359233
-0.360289
-0.361309
-0.362808
-0.364937
-0.367697
-0.371018
-0.374787
-0.378863
-0.383073
-0.387206
-0.39101
-0.394193
-0.396432
-0.397391
-0.396771
-0.394267
-0.389591
-0.381761
-0.358597
-0.359861
-0.360808
-0.361753
-0.363172
-0.365203
-0.367839
-0.370999
-0.374555
-0.378346
-0.382176
-0.38581
-0.388973
-0.391351
-0.392603
-0.392382
-0.390403
-0.386345
-0.379993
-0.369867
-0.35954
-0.360624
-0.361436
-0.362278
-0.363582
-0.365474
-0.36794
-0.370887
-0.374172
-0.377613
-0.38099
-0.384043
-0.38647
-0.387937
-0.388086
-0.386558
-0.383086
-0.377321
-0.369202
-0.35658
-0.360622
-0.361508
-0.362163
-0.36287
-0.364018
-0.365723
-0.367966
-0.370643
-0.373597
-0.376627
-0.379488
-0.381894
-0.38352
-0.38401
-0.382994
-0.380102
-0.375091
-0.367573
-0.35774
-0.342615
-0.36182
-0.3625
-0.362975
-0.363514
-0.364464
-0.36593
-0.36789
-0.370238
-0.372801
-0.375362
-0.377653
-0.379365
-0.380149
-0.379633
-0.377439
-0.373188
-0.366672
-0.357451
-0.346082
-0.328596
-0.363115
-0.363588
-0.363868
-0.364204
-0.364908
-0.36608
-0.367699
-0.369656
-0.371772
-0.373812
-0.37549
-0.376476
-0.376403
-0.374882
-0.371536
-0.365979
-0.358057
-0.347257
-0.334613
-0.315016
-0.364497
-0.364766
-0.364836
-0.364937
-0.365349
-0.366172
-0.367393
-0.368903
-0.37052
-0.371997
-0.373033
-0.373278
-0.372351
-0.369853
-0.365408
-0.358636
-0.349444
-0.337235
-0.32361
-0.302251
-0.365959
-0.366036
-0.365884
-0.365717
-0.365794
-0.366221
-0.366993
-0.368008
-0.369085
-0.369969
-0.370345
-0.369851
-0.368092
-0.364661
-0.359191
-0.351309
-0.341007
-0.327584
-0.313197
-0.290652
-0.36751
-0.367404
-0.367019
-0.366555
-0.366261
-0.366251
-0.366535
-0.367022
-0.367532
-0.367807
-0.367523
-0.366305
-0.363746
-0.359435
-0.353018
-0.344135
-0.332875
-0.318448
-0.303551
-0.280181
-0.369168
-0.368887
-0.368258
-0.367473
-0.366778
-0.366304
-0.366075
-0.366015
-0.365948
-0.365615
-0.364683
-0.362763
-0.35944
-0.354298
-0.347001
-0.337215
-0.325123
-0.309884
-0.294639
-0.270886
-0.370961
-0.37051
-0.369625
-0.368498
-0.367383
-0.366429
-0.36568
-0.365072
-0.364435
-0.363507
-0.361943
-0.359343
-0.355279
-0.349337
-0.3412
-0.330577
-0.317743
-0.301873
-0.286315
-0.262676
-0.372933
-0.372308
-0.371152
-0.369667
-0.368122
-0.366688
-0.365426
-0.364283
-0.363094
-0.361588
-0.359406
-0.356131
-0.351324
-0.344576
-0.335603
-0.324178
-0.310651
-0.294313
-0.278421
-0.255341
-0.375135
-0.374322
-0.37288
-0.371024
-0.369049
-0.367145
-0.365389
-0.363735
-0.362013
-0.35994
-0.357135
-0.353161
-0.34757
-0.339973
-0.330132
-0.317917
-0.303729
-0.287067
-0.270851
-0.248637
-0.377626
-0.376603
-0.374852
-0.372619
-0.370221
-0.367866
-0.365641
-0.363498
-0.361256
-0.358606
-0.355142
-0.350405
-0.343951
-0.335432
-0.324679
-0.311684
-0.296875
-0.280021
-0.263562
-0.242352
-0.380468
-0.379201
-0.377118
-0.3745
-0.371689
-0.368904
-0.366231
-0.36361
-0.360836
-0.357568
-0.353369
-0.34777
-0.340351
-0.330834
-0.319144
-0.305404
-0.29004
-0.273113
-0.256494
-0.236289
-0.383724
-0.382169
-0.379721
-0.376711
-0.373491
-0.370285
-0.367168
-0.364055
-0.360702
-0.356733
-0.351685
-0.345101
-0.336619
-0.326059
-0.313453
-0.29905
-0.283235
-0.266333
-0.249493
-0.230278
-0.387451
-0.385552
-0.382701
-0.379279
-0.375645
-0.372014
-0.368437
-0.36479
-0.360785
-0.356005
-0.349981
-0.342295
-0.332673
-0.321058
-0.307595
-0.292624
-0.27649
-0.259688
-0.242474
-0.224499
-0.397468
-0.390827
-0.382637
-0.37308
-0.362374
-0.350731
-0.338369
-0.325509
-0.312359
-0.299111
-0.285947
-0.273022
-0.260464
-0.248379
-0.236847
-0.225929
-0.215666
-0.20609
-0.197219
-0.189062
-0.181619
-0.174881
-0.168823
-0.163408
-0.158587
-0.154298
-0.150477
-0.147051
-0.143958
-0.141137
-0.138538
-0.136118
-0.133845
-0.131692
-0.129637
-0.127659
-0.125741
-0.123863
-0.122009
-0.120171
-0.11835
-0.116559
-0.114823
-0.113176
-0.111644
-0.110245
-0.108983
-0.10784
-0.10679
-0.105798
-0.104833
-0.103869
-0.102887
-0.101879
-0.100839
-0.0997646
-0.0986534
-0.0975009
-0.0963006
-0.0950494
-0.0937522
-0.0924272
-0.0911049
-0.089823
-0.0886157
-0.0875033
-0.0864878
-0.0855521
-0.084668
-0.0838045
-0.0829334
-0.0820352
-0.0810983
-0.0801154
-0.0790798
-0.0779841
-0.0768252
-0.0756105
-0.0743629
-0.0731195
-0.0719219
-0.0708039
-0.0697794
-0.0688375
-0.0679489
-0.0670775
-0.0661915
-0.0652691
-0.0642972
-0.0632675
-0.0621765
-0.0610298
-0.0598481
-0.0586655
-0.0575205
-0.0564412
-0.0554342
-0.0544825
-0.053556
-0.0526241
-0.0516609
-0.0506488
-0.0495783
-0.0484521
-0.0472889
-0.0461226
-0.0449899
-0.043915
-0.0428972
-0.0419135
-0.0409311
-0.0399185
-0.0388491
-0.0377133
-0.0365134
-0.0352772
-0.0340237
-0.0327876
-0.0315424
-0.0302929
-0.0289366
-0.0274973
-0.0257716
-0.0239395
-0.0215557
-0.0191847
-0.0157754
-0.0126574
-0.00746858
-0.00402857
-0.393162
-0.386264
-0.377932
-0.368317
-0.357611
-0.346019
-0.333756
-0.321035
-0.308055
-0.295007
-0.282056
-0.269357
-0.257033
-0.245186
-0.233892
-0.223205
-0.213165
-0.203797
-0.195115
-0.187128
-0.179832
-0.173217
-0.167262
-0.161931
-0.157177
-0.152944
-0.149168
-0.145782
-0.142723
-0.139935
-0.137366
-0.134975
-0.132729
-0.130601
-0.128569
-0.126612
-0.124711
-0.122847
-0.121004
-0.119173
-0.117358
-0.115574
-0.113849
-0.112216
-0.110705
-0.109335
-0.108107
-0.107003
-0.105994
-0.105045
-0.10412
-0.103194
-0.102249
-0.101275
-0.100268
-0.0992261
-0.0981475
-0.0970288
-0.0958642
-0.0946511
-0.0933936
-0.0921086
-0.0908241
-0.0895749
-0.0883929
-0.0872972
-0.0862897
-0.0853548
-0.0844667
-0.0835964
-0.0827179
-0.0818123
-0.0808683
-0.079878
-0.0788336
-0.0777268
-0.0765539
-0.0753225
-0.0740572
-0.0727975
-0.0715884
-0.0704666
-0.0694473
-0.0685196
-0.0676521
-0.0668063
-0.0659478
-0.0650535
-0.0641104
-0.0631111
-0.0620524
-0.0609399
-0.0597925
-0.0586416
-0.0575222
-0.0564596
-0.0554594
-0.0545054
-0.0535695
-0.0526236
-0.0516432
-0.050611
-0.0495176
-0.048366
-0.047177
-0.0459879
-0.0448392
-0.0437583
-0.0427453
-0.041776
-0.0408146
-0.0398273
-0.0387863
-0.0376808
-0.0365112
-0.0353025
-0.0340704
-0.0328466
-0.0316031
-0.030345
-0.0289714
-0.0275079
-0.0257541
-0.0238929
-0.0214839
-0.0190959
-0.0156829
-0.0125763
-0.00741237
-0.00401382
-0.385532
-0.378173
-0.369576
-0.359846
-0.349118
-0.337589
-0.325471
-0.312963
-0.300253
-0.287518
-0.274914
-0.262581
-0.250638
-0.239177
-0.228267
-0.217957
-0.20828
-0.199255
-0.190892
-0.183195
-0.176159
-0.169773
-0.164017
-0.158857
-0.154251
-0.150145
-0.146482
-0.143197
-0.14023
-0.137527
-0.135038
-0.132722
-0.130547
-0.128485
-0.126516
-0.124616
-0.122768
-0.120953
-0.119154
-0.117363
-0.115585
-0.113838
-0.11215
-0.110557
-0.109091
-0.107771
-0.106598
-0.105553
-0.104605
-0.103716
-0.10285
-0.101981
-0.101089
-0.100166
-0.0992085
-0.098215
-0.0971847
-0.096115
-0.0950013
-0.0938409
-0.0926377
-0.0914062
-0.0901725
-0.0889684
-0.0878234
-0.0867556
-0.0857672
-0.0848442
-0.0839631
-0.0830971
-0.0822218
-0.0813194
-0.0803784
-0.0793904
-0.0783467
-0.0772382
-0.0760602
-0.0748209
-0.0735459
-0.0722776
-0.0710641
-0.0699451
-0.0689375
-0.0680308
-0.0671914
-0.0663784
-0.0655547
-0.0646959
-0.0637887
-0.0628263
-0.0618063
-0.0607339
-0.0596264
-0.0585123
-0.0574237
-0.0563831
-0.0553953
-0.0544447
-0.0535056
-0.0525516
-0.0515596
-0.0505122
-0.0494
-0.0482267
-0.047015
-0.0458055
-0.0446432
-0.0435588
-0.0425534
-0.0416011
-0.0406634
-0.0397036
-0.0386926
-0.0376183
-0.0364796
-0.0352987
-0.0340883
-0.0328774
-0.0316367
-0.0303714
-0.028982
-0.0274956
-0.0257151
-0.0238263
-0.021394
-0.018992
-0.0155795
-0.0124892
-0.00735617
-0.0040041
-0.375035
-0.367019
-0.358045
-0.348131
-0.337351
-0.325889
-0.313949
-0.301714
-0.289355
-0.277029
-0.264881
-0.253034
-0.241593
-0.230641
-0.220239
-0.210428
-0.201231
-0.192663
-0.184728
-0.177425
-0.170747
-0.164681
-0.159207
-0.154296
-0.149909
-0.145996
-0.142504
-0.139375
-0.136551
-0.13398
-0.131616
-0.129416
-0.127351
-0.125394
-0.123522
-0.121716
-0.119954
-0.118219
-0.116495
-0.114775
-0.113063
-0.111379
-0.109754
-0.108226
-0.106827
-0.105577
-0.104478
-0.103509
-0.102639
-0.101827
-0.101037
-0.10024
-0.0994184
-0.0985627
-0.0976698
-0.0967398
-0.0957725
-0.0947662
-0.0937173
-0.0926231
-0.091487
-0.0903218
-0.0891509
-0.0880036
-0.086907
-0.0858784
-0.0849201
-0.0840202
-0.083157
-0.0823062
-0.0814448
-0.0805559
-0.079628
-0.0786523
-0.0776191
-0.0765184
-0.0753448
-0.0741063
-0.0728302
-0.0715609
-0.0703502
-0.0692405
-0.0682512
-0.0673716
-0.066567
-0.0657937
-0.0650118
-0.0641954
-0.0633306
-0.0624113
-0.0614358
-0.0604089
-0.0593464
-0.0582742
-0.0572213
-0.056208
-0.0552381
-0.0542971
-0.0533608
-0.0524048
-0.0514067
-0.0503492
-0.0492228
-0.0480316
-0.0468006
-0.0455736
-0.0444002
-0.0433146
-0.0423194
-0.041387
-0.0404754
-0.0395454
-0.0385659
-0.0375238
-0.0364163
-0.0352635
-0.0340752
-0.032878
-0.0316414
-0.0303704
-0.0289669
-0.0274594
-0.0256535
-0.0237391
-0.0212854
-0.0188726
-0.0154651
-0.0123959
-0.00729984
-0.00399912
-0.362316
-0.353474
-0.344022
-0.333843
-0.322962
-0.311547
-0.299791
-0.287861
-0.275903
-0.264053
-0.252438
-0.241163
-0.230315
-0.219965
-0.210164
-0.200941
-0.192315
-0.184291
-0.176868
-0.170039
-0.163795
-0.158121
-0.152999
-0.1484
-0.14429
-0.140624
-0.137354
-0.134425
-0.131787
-0.129389
-0.127186
-0.125139
-0.123218
-0.121397
-0.119655
-0.117971
-0.116325
-0.1147
-0.113079
-0.111456
-0.109836
-0.108241
-0.106702
-0.105258
-0.103945
-0.102784
-0.101775
-0.100898
-0.10012
-0.0994004
-0.0987005
-0.0979912
-0.0972537
-0.0964792
-0.0956653
-0.0948124
-0.0939215
-0.0929917
-0.0920201
-0.0910045
-0.0899474
-0.0888599
-0.0877629
-0.0866831
-0.0856455
-0.0846667
-0.0837494
-0.0828833
-0.0820489
-0.0812239
-0.080387
-0.0795218
-0.0786171
-0.0776635
-0.0766507
-0.0755673
-0.0744077
-0.0731794
-0.0719107
-0.0706484
-0.0694475
-0.0683536
-0.0673884
-0.0665419
-0.065778
-0.0650506
-0.0643171
-0.0635494
-0.0627332
-0.0618629
-0.0609372
-0.0599609
-0.0589481
-0.0579224
-0.05691
-0.055929
-0.0549828
-0.0540573
-0.0531302
-0.0521782
-0.0511799
-0.0501178
-0.0489819
-0.0477771
-0.0465302
-0.0452889
-0.0441071
-0.0430229
-0.0420404
-0.0411304
-0.0402476
-0.0393494
-0.038403
-0.037394
-0.0363183
-0.0351939
-0.0340284
-0.0328457
-0.0316147
-0.0303398
-0.0289241
-0.0273974
-0.025568
-0.02363
-0.0211572
-0.018737
-0.015339
-0.0122958
-0.00724294
-0.00399838
-0.348141
-0.338349
-0.328333
-0.317806
-0.306755
-0.295337
-0.283739
-0.272104
-0.260556
-0.249208
-0.23816
-0.227502
-0.217299
-0.207606
-0.198459
-0.189882
-0.181882
-0.174459
-0.167603
-0.161304
-0.155547
-0.150318
-0.145595
-0.141355
-0.137565
-0.134187
-0.131176
-0.128484
-0.126064
-0.12387
-0.121858
-0.119991
-0.118242
-0.116584
-0.114996
-0.11346
-0.111955
-0.110462
-0.108968
-0.107466
-0.105961
-0.104475
-0.103042
-0.101702
-0.100491
-0.0994322
-0.0985267
-0.0977548
-0.0970817
-0.0964662
-0.0958687
-0.095259
-0.0946181
-0.0939372
-0.0932144
-0.0924508
-0.0916479
-0.0908058
-0.0899227
-0.0889964
-0.0880286
-0.0870291
-0.0860161
-0.0850133
-0.0840448
-0.0831254
-0.0822592
-0.0814372
-0.0806419
-0.0798531
-0.0790506
-0.0782191
-0.0773473
-0.0764255
-0.0754426
-0.0743863
-0.0732501
-0.0720416
-0.070789
-0.0695417
-0.0683575
-0.0672855
-0.0663499
-0.0655418
-0.0648239
-0.0641483
-0.0634689
-0.0627557
-0.0619937
-0.0611777
-0.0603068
-0.0593856
-0.058427
-0.057452
-0.0564846
-0.0555411
-0.0546239
-0.0537199
-0.0528081
-0.0518664
-0.0508738
-0.0498125
-0.0486724
-0.0474586
-0.0461999
-0.0449474
-0.0437601
-0.04268
-0.0417127
-0.0408277
-0.039976
-0.0391118
-0.0381999
-0.0372251
-0.0361818
-0.0350865
-0.0339443
-0.0327774
-0.0315536
-0.0302769
-0.0288512
-0.0273075
-0.0254568
-0.0234977
-0.0210082
-0.0185841
-0.0152004
-0.0121883
-0.00718487
-0.00400132
-0.333315
-0.322516
-0.311882
-0.300941
-0.289644
-0.27815
-0.266642
-0.255247
-0.244068
-0.233192
-0.222697
-0.212648
-0.203094
-0.194066
-0.18559
-0.177677
-0.170325
-0.163524
-0.157262
-0.151519
-0.146279
-0.141522
-0.137228
-0.133375
-0.129933
-0.126868
-0.124141
-0.121709
-0.11953
-0.117561
-0.11576
-0.114094
-0.112535
-0.111059
-0.109645
-0.108275
-0.106929
-0.105589
-0.104241
-0.102877
-0.101505
-0.100146
-0.098835
-0.0976123
-0.0965165
-0.0955714
-0.0947796
-0.0941218
-0.0935631
-0.0930613
-0.092576
-0.0920756
-0.0915414
-0.0909644
-0.0903428
-0.0896783
-0.0889733
-0.0882286
-0.0874431
-0.086615
-0.0857455
-0.0848424
-0.0839217
-0.083005
-0.0821138
-0.0812631
-0.0804573
-0.0796888
-0.0789421
-0.078199
-0.0774405
-0.0766521
-0.0758223
-0.0749416
-0.0739978
-0.0729783
-0.0718751
-0.0706952
-0.0694678
-0.0682434
-0.0670828
-0.0660384
-0.0651374
-0.0643724
-0.0637057
-0.0630861
-0.062466
-0.0618127
-0.06111
-0.0603529
-0.0595413
-0.0586793
-0.0577788
-0.0568585
-0.0559404
-0.0550388
-0.0541559
-0.0532792
-0.0523888
-0.0514635
-0.0504826
-0.0494279
-0.0482888
-0.0470709
-0.0458046
-0.0445448
-0.043355
-0.0422816
-0.0413321
-0.0404745
-0.0396563
-0.038828
-0.0379524
-0.0370128
-0.0360029
-0.0349373
-0.0338194
-0.0326696
-0.0314549
-0.0301785
-0.0287453
-0.0271872
-0.0253177
-0.0233402
-0.0208371
-0.0184127
-0.0150483
-0.0120722
-0.00712488
-0.00400725
-0.318573
-0.306797
-0.295535
-0.28416
-0.272557
-0.260907
-0.249396
-0.238147
-0.227242
-0.216753
-0.206736
-0.197234
-0.188275
-0.179872
-0.172036
-0.164763
-0.158043
-0.151857
-0.146183
-0.140998
-0.136277
-0.131999
-0.128143
-0.124686
-0.121602
-0.118861
-0.11643
-0.114271
-0.112342
-0.110609
-0.109032
-0.107578
-0.10622
-0.104938
-0.10371
-0.102518
-0.101344
-0.10017
-0.0989803
-0.0977698
-0.0965447
-0.0953256
-0.0941477
-0.0930532
-0.0920813
-0.0912577
-0.0905864
-0.0900491
-0.0896108
-0.0892292
-0.0888628
-0.0884792
-0.0880592
-0.0875938
-0.0870813
-0.0865239
-0.0859245
-0.0852848
-0.0846043
-0.0838815
-0.0831171
-0.0823174
-0.0814961
-0.0806724
-0.0798662
-0.0790921
-0.0783548
-0.0776484
-0.076959
-0.07627
-0.0755642
-0.0748273
-0.0740483
-0.0732172
-0.0723214
-0.0713475
-0.0702865
-0.0691447
-0.067951
-0.0667572
-0.0656268
-0.0646154
-0.0637535
-0.0630354
-0.0624234
-0.0618645
-0.0613082
-0.0607191
-0.0600802
-0.0593863
-0.0586377
-0.0578386
-0.0569995
-0.0561376
-0.0552725
-0.0544172
-0.0535736
-0.0527297
-0.0518665
-0.0509637
-0.0500003
-0.048958
-0.0478255
-0.0466086
-0.0453394
-0.0440761
-0.0428871
-0.041823
-0.0408937
-0.0400659
-0.0392836
-0.0384933
-0.0376556
-0.0367525
-0.0357768
-0.0347419
-0.0336494
-0.0325183
-0.0313148
-0.0300413
-0.0286034
-0.0270338
-0.0251485
-0.0231556
-0.020642
-0.0182214
-0.0148814
-0.0119465
-0.00706201
-0.0040153
-0.304516
-0.291859
-0.280013
-0.268246
-0.256326
-0.24446
-0.232859
-0.221642
-0.210887
-0.200653
-0.190985
-0.181908
-0.173433
-0.165561
-0.158283
-0.151583
-0.145439
-0.139822
-0.134702
-0.130046
-0.125825
-0.122012
-0.118582
-0.115514
-0.112783
-0.110365
-0.108228
-0.106339
-0.104663
-0.103167
-0.101816
-0.100577
-0.099426
-0.0983414
-0.0973045
-0.0962972
-0.0953018
-0.0943004
-0.0932786
-0.09223
-0.0911598
-0.0900892
-0.0890527
-0.088093
-0.0872506
-0.0865528
-0.0860055
-0.0855916
-0.0852768
-0.0850189
-0.0847752
-0.084513
-0.0842121
-0.0838636
-0.0834658
-0.0830213
-0.0825331
-0.0820038
-0.0814336
-0.0808214
-0.0801673
-0.0794763
-0.0787597
-0.0780348
-0.0773197
-0.0766286
-0.0759667
-0.0753296
-0.0747052
-0.0740777
-0.0734323
-0.0727545
-0.072034
-0.0712603
-0.0704206
-0.0695006
-0.0684906
-0.0673957
-0.0662441
-0.0650884
-0.0639944
-0.0630209
-0.062202
-0.061534
-0.0609798
-0.0604849
-0.0599959
-0.0594749
-0.0589034
-0.0582763
-0.0575941
-0.056861
-0.0560863
-0.0552858
-0.0544771
-0.0536721
-0.0528721
-0.0520661
-0.0512358
-0.0503611
-0.0494212
-0.0483971
-0.0472768
-0.0460662
-0.044799
-0.0435364
-0.0423515
-0.0412995
-0.0403928
-0.0395971
-0.0388527
-0.0381026
-0.0373044
-0.0364391
-0.0354988
-0.0344956
-0.0334301
-0.0323193
-0.0311293
-0.0298613
-0.0284219
-0.0268441
-0.0249463
-0.0229415
-0.0204211
-0.0180082
-0.0146982
-0.0118096
-0.00699514
-0.00402447
-0.291558
-0.278168
-0.26583
-0.253775
-0.241589
-0.229497
-0.217746
-0.206466
-0.195732
-0.185604
-0.176124
-0.167308
-0.159161
-0.15167
-0.144818
-0.138576
-0.13291
-0.12778
-0.123144
-0.118964
-0.115197
-0.111813
-0.108782
-0.106078
-0.103683
-0.101571
-0.099715
-0.0980879
-0.0966568
-0.0953901
-0.0942587
-0.0932298
-0.0922813
-0.0913929
-0.090546
-0.0897235
-0.0889075
-0.0880812
-0.0872299
-0.086347
-0.0854362
-0.084518
-0.0836266
-0.0828048
-0.0820938
-0.0815227
-0.0810995
-0.080809
-0.0806177
-0.0804842
-0.0803643
-0.080225
-0.0800456
-0.0798169
-0.0795369
-0.0792087
-0.0788353
-0.0784197
-0.0779632
-0.0774649
-0.0769244
-0.0763454
-0.0757373
-0.0751154
-0.074496
-0.0738931
-0.0733121
-0.0727501
-0.0721967
-0.0716374
-0.0710587
-0.0704467
-0.0697911
-0.0690817
-0.0683055
-0.0674471
-0.066496
-0.0654559
-0.0643543
-0.0632439
-0.0621919
-0.0612608
-0.0604879
-0.0598727
-0.0593784
-0.0589499
-0.058531
-0.0580811
-0.0575802
-0.0570228
-0.0564095
-0.0557449
-0.0550372
-0.0543006
-0.0535512
-0.0527999
-0.0520478
-0.0512843
-0.0504919
-0.0496508
-0.04874
-0.0477397
-0.0466373
-0.0454386
-0.0441783
-0.0429208
-0.0417435
-0.0407064
-0.0398246
-0.0390629
-0.0383587
-0.0376505
-0.0368936
-0.0360677
-0.035164
-0.0341938
-0.0331566
-0.0320684
-0.0308943
-0.0296349
-0.0281973
-0.0266149
-0.0247083
-0.0226954
-0.0201722
-0.0177714
-0.0144969
-0.0116601
-0.00692296
-0.00403358
-0.279868
-0.265996
-0.253276
-0.241074
-0.228732
-0.216459
-0.204553
-0.193157
-0.18235
-0.172195
-0.162741
-0.154011
-0.146008
-0.138721
-0.132125
-0.126184
-0.120856
-0.116091
-0.111836
-0.108041
-0.104657
-0.101642
-0.0989618
-0.0965869
-0.0944935
-0.0926606
-0.0910637
-0.0896779
-0.0884737
-0.0874223
-0.0864987
-0.0856704
-0.0849147
-0.0842142
-0.0835501
-0.0829066
-0.0822661
-0.0816122
-0.0809294
-0.0802109
-0.0794593
-0.0786939
-0.0779477
-0.0772632
-0.0766824
-0.0762361
-0.0759345
-0.0757641
-0.0756935
-0.0756822
-0.0756845
-0.0756672
-0.0756094
-0.0755006
-0.0753396
-0.0751283
-0.0748711
-0.0745708
-0.0742293
-0.0738461
-0.0734206
-0.0729554
-0.0724581
-0.0719416
-0.0714212
-0.0709098
-0.0704139
-0.0699316
-0.0694539
-0.0689679
-0.068461
-0.06792
-0.0673348
-0.0666954
-0.0659885
-0.0651983
-0.0643133
-0.0633355
-0.0622911
-0.0612323
-0.0602278
-0.0593428
-0.0586185
-0.0580577
-0.057625
-0.057264
-0.0569171
-0.0565405
-0.0561125
-0.0556269
-0.0550848
-0.0544905
-0.0538516
-0.053181
-0.0524934
-0.0517987
-0.0510979
-0.0503811
-0.0496312
-0.0488288
-0.0479524
-0.0469815
-0.0459026
-0.0447212
-0.0434731
-0.0422249
-0.0410589
-0.0400394
-0.0391845
-0.0384588
-0.0377966
-0.0371324
-0.0364184
-0.0356332
-0.0347676
-0.0338318
-0.0328247
-0.0317609
-0.0306056
-0.0293582
-0.0279258
-0.0263428
-0.0244314
-0.0224146
-0.019893
-0.0175088
-0.0142757
-0.011496
-0.00684397
-0.00404133
-0.269618
-0.255414
-0.242462
-0.230258
-0.217897
-0.205537
-0.193517
-0.182002
-0.171077
-0.160809
-0.151259
-0.142464
-0.134436
-0.12717
-0.120645
-0.114826
-0.109666
-0.105109
-0.101096
-0.0975645
-0.0944611
-0.0917331
-0.0893339
-0.08723
-0.0853962
-0.0838044
-0.0824353
-0.0812621
-0.0802613
-0.0794061
-0.0786696
-0.078024
-0.0774468
-0.0769212
-0.0764293
-0.0759541
-0.0754802
-0.0749912
-0.0744711
-0.0739115
-0.0733151
-0.0726987
-0.0720942
-0.0715434
-0.0710887
-0.0707626
-0.0705775
-0.0705218
-0.0705657
-0.0706724
-0.0707926
-0.0708944
-0.070955
-0.0709644
-0.0709209
-0.070826
-0.0706842
-0.0704986
-0.0702715
-0.0700028
-0.069692
-0.0693405
-0.0689543
-0.0685444
-0.0681245
-0.0677068
-0.0672987
-0.0668991
-0.0665003
-0.0660912
-0.06566
-0.0651938
-0.0646833
-0.0641183
-0.0634855
-0.0627691
-0.061956
-0.061047
-0.0600661
-0.0590649
-0.0581125
-0.0572769
-0.056603
-0.0560973
-0.0557265
-0.0554337
-0.0551596
-0.0548576
-0.0545039
-0.0540917
-0.0536222
-0.0530995
-0.0525309
-0.0519277
-0.0513037
-0.0506678
-0.0500213
-0.0493547
-0.0486515
-0.0478924
-0.0470554
-0.0461191
-0.045069
-0.0439105
-0.0426795
-0.0414453
-0.0402941
-0.0392948
-0.0384688
-0.0377807
-0.0371621
-0.0365435
-0.0358741
-0.0351312
-0.0343049
-0.0334052
-0.0324299
-0.0313929
-0.0302591
-0.0290267
-0.0276037
-0.0260242
-0.0241126
-0.0220964
-0.0195809
-0.0172181
-0.0140324
-0.0113154
-0.00675656
-0.00404627
-0.260657
-0.246376
-0.233357
-0.221268
-0.209027
-0.196699
-0.184643
-0.17305
-0.16201
-0.151599
-0.141887
-0.132927
-0.124745
-0.117353
-0.110734
-0.10486
-0.0996898
-0.0951696
-0.0912366
-0.0878225
-0.0848668
-0.0823109
-0.0801028
-0.0781969
-0.0765592
-0.075161
-0.0739764
-0.0729835
-0.0721551
-0.0714702
-0.070893
-0.0704095
-0.0699919
-0.0696241
-0.0692885
-0.0689683
-0.0686477
-0.0683123
-0.0679439
-0.0675352
-0.0670867
-0.0666123
-0.0661434
-0.0657198
-0.0653845
-0.0651717
-0.065096
-0.0651482
-0.0652986
-0.0655148
-0.0657477
-0.0659625
-0.066137
-0.0662607
-0.0663313
-0.0663504
-0.0663211
-0.0662477
-0.0661326
-0.0659762
-0.0657779
-0.0655384
-0.0652621
-0.064958
-0.0646387
-0.0643158
-0.0639963
-0.063681
-0.0633633
-0.0630323
-0.0626796
-0.0622908
-0.0618577
-0.0613702
-0.0608152
-0.0601766
-0.0594404
-0.0586054
-0.0576935
-0.0567547
-0.0558584
-0.0550746
-0.0544522
-0.0540018
-0.0536923
-0.0534674
-0.053266
-0.0530389
-0.0527603
-0.0524224
-0.052026
-0.0515758
-0.051078
-0.0505433
-0.0499839
-0.0494087
-0.0488188
-0.0482054
-0.0475524
-0.0468404
-0.0460471
-0.0451504
-0.0441344
-0.0430038
-0.0417951
-0.0405793
-0.0394463
-0.0384698
-0.0376745
-0.0370259
-0.0364515
-0.03588
-0.0352567
-0.0345575
-0.0337721
-0.0329099
-0.0319683
-0.0309603
-0.0298508
-0.028637
-0.0272274
-0.0256559
-0.0237488
-0.0217378
-0.0192337
-0.016897
-0.0137649
-0.0111162
-0.006659
-0.00404681
-0.25271
-0.238697
-0.225811
-0.213925
-0.201915
-0.189743
-0.17775
-0.166147
-0.155035
-0.144497
-0.134615
-0.125452
-0.117051
-0.109435
-0.102603
-0.0965365
-0.0912021
-0.0865518
-0.0825302
-0.0790745
-0.0761216
-0.0736068
-0.0714723
-0.0696698
-0.0681506
-0.0668795
-0.0658295
-0.0649698
-0.0642773
-0.063726
-0.0632822
-0.0629342
-0.0626532
-0.0624218
-0.0622241
-0.0620414
-0.0618592
-0.0616623
-0.0614342
-0.0611631
-0.0608514
-0.0605101
-0.0601677
-0.059863
-0.0596391
-0.0595307
-0.0595552
-0.0597065
-0.0599594
-0.0602703
-0.0606065
-0.0609279
-0.0612098
-0.0614423
-0.0616218
-0.0617496
-0.0618288
-0.0618635
-0.0618564
-0.0618084
-0.0617189
-0.0615882
-0.0614192
-0.0612189
-0.0609988
-0.0607697
-0.0605389
-0.060308
-0.0600716
-0.059819
-0.0595457
-0.0592361
-0.0588816
-0.0584732
-0.0579984
-0.0574402
-0.0567844
-0.0560274
-0.0551888
-0.0543167
-0.0534796
-0.0527497
-0.0521792
-0.0517832
-0.0515338
-0.0513753
-0.0512457
-0.051093
-0.0508893
-0.0506255
-0.0503025
-0.0499246
-0.0494979
-0.0490318
-0.0485378
-0.0480243
-0.0474926
-0.0469346
-0.0463344
-0.045673
-0.0449275
-0.0440745
-0.0430974
-0.0419999
-0.0408183
-0.0396251
-0.0385138
-0.0375624
-0.0367993
-0.0361906
-0.0356622
-0.0351389
-0.034563
-0.0339088
-0.0331657
-0.0323425
-0.0314364
-0.0304597
-0.0293774
-0.0281855
-0.0267936
-0.0252345
-0.0233369
-0.0213362
-0.0188487
-0.0165432
-0.0134711
-0.0108963
-0.00654944
-0.00404126
-0.245464
-0.232093
-0.219577
-0.20797
-0.196271
-0.184364
-0.172537
-0.161006
-0.14989
-0.139277
-0.129258
-0.119908
-0.111281
-0.103407
-0.0962986
-0.0899503
-0.0843393
-0.07943
-0.0751783
-0.0715315
-0.0684321
-0.0658202
-0.0636368
-0.0618223
-0.0603266
-0.0591067
-0.0581232
-0.0573431
-0.0567396
-0.0562798
-0.0559392
-0.0556914
-0.0555193
-0.0553995
-0.0553176
-0.0552534
-0.0551917
-0.0551165
-0.0550124
-0.0548664
-0.0546788
-0.0544584
-0.0542314
-0.0540362
-0.0539138
-0.0539
-0.0540145
-0.0542541
-0.0545936
-0.0549951
-0.0554253
-0.0558432
-0.0562249
-0.0565582
-0.0568399
-0.0570706
-0.0572527
-0.0573898
-0.0574854
-0.0575404
-0.0575547
-0.057528
-0.0574624
-0.0573632
-0.0572397
-0.0571019
-0.0569581
-0.0568105
-0.0566551
-0.0564841
-0.0562853
-0.0560543
-0.0557788
-0.0554502
-0.055056
-0.0545798
-0.0540065
-0.0533304
-0.0525685
-0.0517661
-0.0509907
-0.0503158
-0.049797
-0.0494541
-0.0492628
-0.0491686
-0.0491087
-0.049029
-0.0488994
-0.0487091
-0.0484587
-0.0481527
-0.0477964
-0.0473986
-0.0469701
-0.0465187
-0.0460463
-0.0455452
-0.0450002
-0.0443918
-0.0436972
-0.042892
-0.0419581
-0.0408982
-0.0397484
-0.0385819
-0.0374955
-0.0365714
-0.0358417
-0.0352737
-0.034792
-0.0343177
-0.0337902
-0.0331822
-0.0324826
-0.0316999
-0.030831
-0.0298878
-0.0288355
-0.0276691
-0.0262989
-0.0247571
-0.0228742
-0.020889
-0.0184237
-0.0161544
-0.0131487
-0.0106534
-0.00642601
-0.00402788
-0.238676
-0.226264
-0.214355
-0.203111
-0.191777
-0.180217
-0.168648
-0.157278
-0.146234
-0.135617
-0.125522
-0.116031
-0.107206
-0.0990849
-0.09169
-0.0850249
-0.07908
-0.0738337
-0.0692551
-0.0653057
-0.0619387
-0.0591031
-0.056744
-0.0548057
-0.0532319
-0.0519711
-0.0509764
-0.0502094
-0.0496342
-0.0492205
-0.0489385
-0.0487575
-0.0486631
-0.048628
-0.0486368
-0.0486698
-0.0487092
-0.0487369
-0.0487403
-0.0487039
-0.0486257
-0.0485146
-0.0483908
-0.0482941