/*--------------------------------*- C++ -*----------------------------------*\
| =========                 |                                                 |
| \\      /  F ield         | OpenFOAM: The Open Source CFD Toolbox           |
|  \\    /   O peration     | Version:  5.0                                   |
|   \\  /    A nd           | Web:      www.OpenFOAM.org                      |
|    \\/     M anipulation  |                                                 |
\*---------------------------------------------------------------------------*/
FoamFile
{
    version     2.0;
    format      ascii;
    class       volVectorField;
    location    "7";
    object      U;
}
// * * * * * * * * * * * * * * * * * * * * * * * * * * * * * * * * * * * * * //

dimensions      [0 1 -1 0 0 0 0];

internalField   nonuniform List<vector> 
24400
(
(-0.0183522 0.0163001 -1.3023e-19)
(-0.0294451 0.0316884 2.7358e-19)
(-0.0156538 0.0384186 2.62871e-19)
(0.0231786 0.0397824 -2.51448e-19)
(0.0872769 0.0378295 -1.17601e-19)
(0.17652 0.0339191 -3.34477e-19)
(0.289801 0.0290356 0)
(0.424134 0.0238252 0)
(0.573842 0.0185243 0)
(0.730392 0.012922 -3.41139e-19)
(0.883313 0.00646144 0)
(1.02208 -0.001516 0)
(1.1383 -0.0114729 -2.74619e-19)
(1.2272 -0.0235038 0)
(1.28811 -0.0372038 0)
(1.32365 -0.0520566 4.2269e-19)
(1.33874 -0.0667825 -3.82171e-19)
(1.33806 -0.0819481 -3.43263e-19)
(1.32787 -0.0928172 -3.02155e-19)
(1.30923 -0.111478 2.91846e-19)
(-0.0185651 0.0153153 0)
(-0.0252936 0.027497 -2.73593e-19)
(-0.00334466 0.03089 -2.63126e-19)
(0.0468882 0.0295653 2.50889e-19)
(0.125257 0.0260196 4.7705e-19)
(0.230925 0.0218632 2.20887e-19)
(0.361309 0.018119 2.08113e-19)
(0.511036 0.0152536 1.92881e-19)
(0.671492 0.0131225 -1.80237e-19)
(0.831573 0.0110241 4.23824e-22)
(0.979659 0.00795489 1.55673e-19)
(1.10605 0.00298153 1.45578e-19)
(1.20487 -0.00442947 2.76624e-19)
(1.27464 -0.0142938 4.89288e-19)
(1.3177 -0.0260947 -6.70354e-19)
(1.33869 -0.0391911 -2.1079e-19)
(1.3433 -0.0523502 5.64189e-19)
(1.33626 -0.0658859 7.447e-21)
(1.32257 -0.0758032 1.54393e-19)
(1.30374 -0.0915384 0)
(-0.0182921 0.0140782 6.66976e-20)
(-0.0192847 0.0232207 1.38455e-19)
(0.0125832 0.0238315 -1.83516e-21)
(0.0761973 0.020595 -3.83077e-19)
(0.17067 0.0163594 -9.52023e-19)
(0.293868 0.012909 -4.46566e-19)
(0.440993 0.0111932 0)
(0.603676 0.0113334 3.84864e-19)
(0.770356 0.0126396 5.34019e-19)
(0.928199 0.0138478 3.99473e-22)
(1.06589 0.0135718 -3.05851e-19)
(1.176 0.0107659 4.19365e-19)
(1.25594 0.00500466 -2.58605e-19)
(1.30748 -0.00351847 -4.86895e-19)
(1.33524 -0.0141114 4.45942e-19)
(1.34495 -0.0260091 -1.94813e-19)
(1.34224 -0.0380226 1.84449e-19)
(1.33124 -0.0503678 0)
(1.31594 -0.0595113 2.82549e-19)
(1.29736 -0.0744198 2.5035e-19)
(-0.0173682 0.0125201 -2.73148e-19)
(-0.011108 0.0187245 -2.84999e-19)
(0.0324597 0.0170992 -1.34397e-19)
(0.111291 0.012762 5.09065e-19)
(0.223301 0.00878686 3.54225e-19)
(0.364385 0.0070081 -5.48667e-21)
(0.526816 0.00812202 -2.04705e-19)
(0.698937 0.0117005 -7.59465e-19)
(0.866761 0.0163835 -1.74509e-19)
(1.01703 0.020381 -1.61527e-19)
(1.14023 0.0220973 1.13918e-21)
(1.23213 0.0205855 -4.19099e-19)
(1.29361 0.0156854 2.57307e-19)
(1.32905 0.00786733 0)
(1.34447 -0.00200376 4.18324e-19)
(1.34583 -0.0130773 3.78806e-19)
(1.33817 -0.0242529 3.41289e-19)
(1.32484 -0.0356629 3.06044e-19)
(1.30884 -0.0443286 -2.82808e-19)
(1.29069 -0.0580172 2.41163e-19)
(-0.0156376 0.0106142 6.32405e-20)
(-0.000477837 0.0139556 -2.9204e-19)
(0.0565501 0.010656 5.49386e-19)
(0.152206 0.00608304 -1.29631e-19)
(0.28266 0.00337765 -2.41489e-19)
(0.441102 0.0042382 1.10937e-18)
(0.616321 0.00886548 2.05886e-19)
(0.79351 0.0160789 3.76797e-19)
(0.957303 0.0238139 0)
(1.09552 0.0299061 0)
(1.20163 0.0327863 7.35859e-19)
(1.27504 0.0318027 1.31426e-19)
(1.31964 0.0271578 0)
(1.34165 0.0196043 4.45633e-19)
(1.34759 0.0101386 -6.28602e-19)
(1.34306 -0.000358167 -1.20067e-20)
(1.33226 -0.0108997 -1.78135e-19)
(1.31771 -0.0215773 -1.92269e-20)
(1.30157 -0.0298642 -1.38324e-19)
(1.28406 -0.042585 0)
(-0.0129617 0.00837558 2.04249e-19)
(0.0128551 0.008953 1.42677e-19)
(0.0850471 0.00458714 -2.74444e-19)
(0.198841 0.000704701 -3.8986e-19)
(0.348027 0.000310594 3.60388e-19)
(0.522377 0.00470493 5.97241e-21)
(0.706934 0.013311 -4.06946e-19)
(0.884405 0.0240548 -3.77033e-19)
(1.03946 0.03426 0)
(1.1624 0.0416359 1.56149e-19)
(1.25039 0.0448874 -4.38856e-19)
(1.3063 0.0438036 -5.30994e-19)
(1.33635 0.0389806 2.39826e-19)
(1.34768 0.0314102 -5.61651e-21)
(1.34668 0.0221575 0)
(1.33818 0.0120798 1.6501e-19)
(1.3255 0.00202952 -1.67085e-19)
(1.31041 -0.00806123 -4.37614e-19)
(1.29444 -0.0160658 1.33818e-19)
(1.27758 -0.027936 -2.24665e-19)
(-0.00921938 0.00585558 6.44383e-19)
(0.0291033 0.00384314 0)
(0.118069 -0.000904914 2.8251e-19)
(0.250953 -0.00310878 2.59152e-19)
(0.418461 -0.000164604 0)
(0.606366 0.00849743 -3.31848e-19)
(0.796143 0.0212576 1.05214e-19)
(0.969158 0.0351304 5.61516e-19)
(1.11165 0.0470511 0)
(1.21745 0.0548955 1.53733e-19)
(1.28759 0.0578497 -5.13199e-21)
(1.32785 0.0562151 3.88009e-19)
(1.3459 0.0509492 -2.39587e-19)
(1.34908 0.0432083 -2.17918e-19)
(1.34316 0.0340587 1.92077e-19)
(1.3321 0.0242913 -1.05422e-20)
(1.31835 0.0146188 -1.57092e-19)
(1.30313 0.00498888 -1.45319e-19)
(1.28746 -0.00281916 0)
(1.27127 -0.0139902 -2.1718e-19)
(-0.00430516 0.00313484 -6.57726e-19)
(0.0484342 -0.00117089 7.60082e-20)
(0.155643 -0.00551751 1.45788e-19)
(0.308127 -0.00500814 1.32924e-19)
(0.492799 0.00222078 -1.20314e-19)
(0.691116 0.0156392 2.22782e-19)
(0.881669 0.0324062 -5.08355e-19)
(1.04597 0.0487613 -1.83065e-19)
(1.17319 0.0615647 1.72191e-19)
(1.26127 0.0691374 0)
(1.31477 0.0712804 2.79354e-19)
(1.34163 0.068805 -6.3632e-19)
(1.35017 0.0629553 1.18824e-19)
(1.34733 0.0549675 -4.12589e-19)
(1.33805 0.0458521 -3.69587e-19)
(1.3254 0.0363076 -2.75743e-21)
(1.31111 0.0269131 9.4805e-21)
(1.29597 0.017631 1.32767e-19)
(1.28067 0.00993714 -7.56802e-21)
(1.2651 -0.000663066 -1.12548e-19)
(0.00187199 0.000315778 2.95674e-19)
(0.0709632 -0.00582736 3.10075e-19)
(0.197679 -0.00887708 -1.42131e-19)
(0.369756 -0.00460719 -6.66154e-19)
(0.569679 0.00769552 0)
(0.774678 0.0260533 -1.10141e-19)
(0.961619 0.0463751 1.03093e-19)
(1.11374 0.0644039 -1.81631e-19)
(1.22415 0.0772695 5.06756e-19)
(1.29494 0.0839567 -1.54537e-19)
(1.33363 0.0849336 -5.55954e-19)
(1.34944 0.0814602 1.33132e-19)
(1.35067 0.0749708 1.10871e-19)
(1.34352 0.0667024 3.02484e-19)
(1.33201 0.0575702 -2.70589e-21)
(1.3184 0.0481693 -1.68576e-19)
(1.30388 0.0389595 4.46626e-19)
(1.28894 0.0299208 -2.65728e-19)
(1.27401 0.0222626 4.68488e-19)
(1.25901 0.0121151 -1.08921e-19)
(0.0093882 -0.00248207 -3.85383e-19)
(0.0967412 -0.00982266 -3.08883e-19)
(0.243951 -0.0105733 -2.93918e-19)
(0.43503 -0.00153472 2.6587e-19)
(0.647604 0.0164009 -1.21219e-19)
(0.855238 0.0395547 1.13365e-19)
(1.03458 0.0627338 2.03675e-19)
(1.17201 0.0815577 0)
(1.26513 0.0937448 -6.66357e-19)
(1.31984 0.0990797 3.03081e-19)
(1.3458 0.0986748 1.33172e-19)
(1.35276 0.0941407 3.66853e-19)
(1.34853 0.087003 -2.20422e-19)
(1.33838 0.0784362 0)
(1.32542 0.0692385 0)
(1.31127 0.0599029 1.57193e-19)
(1.2967 0.0507887 -2.91491e-19)
(1.282 0.0418961 -1.84705e-21)
(1.26744 0.0342005 -1.25785e-19)
(1.25297 0.0244021 9.83595e-20)
(0.0183017 -0.00512603 -7.27093e-21)
(0.125743 -0.0128291 7.8617e-20)
(0.294079 -0.0101941 3.63131e-19)
(0.502957 0.00451999 -2.70795e-19)
(0.725028 0.0283648 1.25141e-19)
(0.931235 0.0558666 3.35314e-19)
(1.09964 0.0810414 -2.06056e-19)
(1.22087 0.0997934 -9.36269e-20)
(1.29709 0.110681 3.31357e-19)
(1.33737 0.114339 0)
(1.35272 0.112446 0)
(1.3528 0.106849 -2.44865e-19)
(1.34458 0.0990738 1.14571e-19)
(1.33237 0.0901911 2.94981e-19)
(1.31849 0.0808751 0)
(1.30406 0.0715266 0)
(1.28954 0.0624231 1.42715e-19)
(1.2751 0.0535868 2.48368e-19)
(1.2609 0.0457865 -3.40353e-19)
(1.24692 0.0362461 0)
(0.0286484 -0.00747286 3.97204e-19)
(0.157855 -0.0145102 3.27148e-19)
(0.347525 -0.00735605 0)
(0.572403 0.0137753 1.34839e-19)
(0.800457 0.0435007 -1.26067e-19)
(1.00144 0.0746516 -2.23264e-19)
(1.15639 0.100882 0)
(1.2608 0.118766 -1.81944e-19)
(1.32113 0.127868 0)
(1.34887 0.129649 -1.46571e-19)
(1.3556 0.126238 -1.28925e-19)
(1.35043 0.119604 1.22968e-19)
(1.33936 0.111204 0)
(1.32577 0.10198 8.83239e-20)
(1.31133 0.0924882 -8.86168e-20)
(1.29678 0.0830488 0)
(1.28237 0.0738762 1.32448e-19)
(1.26819 0.0650134 -7.87797e-21)
(1.25433 0.0570474 -1.11293e-19)
(1.24081 0.0476857 0)
(0.0404368 -0.00937134 3.79895e-21)
(0.192869 -0.0145349 -2.44266e-19)
(0.403609 -0.00173059 1.59063e-21)
(0.642155 0.0263413 -2.08568e-19)
(0.872547 0.0616234 0)
(1.06499 0.0955456 0)
(1.20478 0.121886 0)
(1.29252 0.138213 5.87867e-22)
(1.3384 0.145176 1.61724e-19)
(1.35551 0.144977 1.46633e-19)
(1.3554 0.140065 0)
(1.34631 0.132428 0)
(1.33323 0.123409 0)
(1.31873 0.113808 -2.84032e-19)
(1.30397 0.104077 -1.70321e-19)
(1.28939 0.094471 -7.71034e-20)
(1.27513 0.085155 0)
(1.26122 0.0761902 -1.13988e-19)
(1.24769 0.0680038 2.08769e-19)
(1.2346 0.0587518 -4.93227e-21)
(0.0536428 -0.0106649 -8.23552e-20)
(0.230478 -0.0125911 -8.47336e-20)
(0.461526 0.00693738 3.11354e-21)
(0.710994 0.0422187 2.76099e-19)
(0.940163 0.0824742 6.13595e-20)
(1.12138 0.118185 -2.83387e-19)
(1.24509 0.143743 0)
(1.3169 0.157947 1.80413e-19)
(1.34998 0.162532 7.63249e-20)
(1.35827 0.16032 -7.44701e-20)
(1.35283 0.153947 6.23154e-20)
(1.34087 0.145338 -5.95012e-20)
(1.3264 0.13569 0)
(1.31132 0.125669 2.74274e-19)
(1.29639 0.115634 8.10961e-20)
(1.28186 0.105788 0)
(1.26777 0.0962607 -6.42018e-20)
(1.25414 0.0871252 -5.90438e-20)
(1.24094 0.0786703 0)
(1.22826 0.069468 -1.77876e-19)
(0.0682061 -0.0111956 4.20889e-20)
(0.27028 -0.00839833 2.13049e-19)
(0.520392 0.018816 -2.32652e-19)
(0.777769 0.0613067 2.10339e-19)
(1.00243 0.105745 -6.44177e-20)
(1.1704 0.142224 1.69841e-19)
(1.27781 0.166194 5.17907e-20)
(1.33483 0.177837 1.78014e-19)
(1.35682 0.179904 -1.60152e-19)
(1.35795 0.17569 0)
(1.34843 0.167902 0)
(1.3344 0.15834 1.11372e-19)
(1.31899 0.148041 -5.04552e-20)
(1.30356 0.137548 4.01553e-20)
(1.28857 0.127145 -8.09225e-20)
(1.27413 0.116992 7.29432e-20)
(1.26024 0.107191 1.26928e-19)
(1.24689 0.097822 0)
(1.23402 0.0890564 4.83751e-20)
(1.22174 0.0798515 1.31816e-19)
(0.0840271 -0.010809 4.29166e-20)
(0.311786 -0.00172391 -1.72383e-19)
(0.579266 0.033975 3.73213e-20)
(0.84142 0.083416 -2.81692e-19)
(1.05869 0.131106 -6.20877e-20)
(1.21208 0.167362 5.80565e-20)
(1.30353 0.189057 -4.78785e-20)
(1.34714 0.197818 -2.66156e-19)
(1.35972 0.197297 0)
(1.35513 0.191116 1.36735e-19)
(1.34255 0.181952 -1.87388e-19)
(1.32706 0.171438 -5.83944e-20)
(1.31105 0.160453 4.84695e-20)
(1.29543 0.149432 0)
(1.28045 0.138597 -4.1075e-20)
(1.26616 0.128072 9.76035e-20)
(1.2525 0.11794 -1.20935e-19)
(1.23943 0.108281 1.06762e-19)
(1.22691 0.0991684 -1.44523e-19)
(1.21502 0.0899139 -3.96923e-20)
(0.100964 -0.00936092 8.92571e-20)
(0.354432 0.00760808 0)
(0.637214 0.0523967 3.89322e-20)
(0.901065 0.108298 -3.63523e-20)
(1.10858 0.158218 1.26208e-19)
(1.24665 0.193306 -1.12154e-19)
(1.3229 0.212146 9.94872e-20)
(1.35461 0.217799 1.33131e-19)
(1.35935 0.21467 4.04605e-20)
(1.35028 0.20657 -1.40935e-21)
(1.33545 0.196058 1.23207e-19)
(1.31897 0.184585 -5.31804e-20)
(1.30259 0.172875 9.15987e-22)
(1.2869 0.161273 2.37321e-21)
(1.27202 0.149948 -7.33927e-20)
(1.2579 0.138996 -6.72586e-20)
(1.24449 0.128485 2.81394e-20)
(1.23173 0.118488 -1.865e-21)
(1.21956 0.108998 -2.34597e-20)
(1.20805 0.0996553 0)
(0.118836 -0.00672118 -8.91012e-20)
(0.397601 0.0197156 0)
(0.693337 0.0739891 8.06012e-20)
(0.955973 0.13567 0)
(1.15189 0.186761 0)
(1.27448 0.219819 2.68952e-20)
(1.33658 0.235336 -4.93e-20)
(1.35793 0.237732 -6.46513e-20)
(1.35626 0.232011 -3.67646e-20)
(1.34375 0.222037 3.47274e-22)
(1.32731 0.210197 -2.86874e-20)
(1.31018 0.197745 1.06143e-19)
(1.29362 0.185269 -7.1385e-20)
(1.27796 0.173034 4.17095e-20)
(1.26323 0.161167 7.36751e-20)
(1.24934 0.14974 3.12155e-20)
(1.23622 0.138807 0)
(1.22378 0.128429 -2.38176e-20)
(1.21198 0.118542 1.36845e-21)
(1.20085 0.109076 -1.84325e-20)
(0.137422 -0.00277774 2.29569e-20)
(0.440623 0.0346569 0)
(0.746767 0.0985908 -8.0106e-20)
(1.00555 0.165212 0)
(1.18857 0.216419 -3.15612e-20)
(1.29594 0.246688 4.09574e-20)
(1.34516 0.258528 -1.2731e-20)
(1.35767 0.257596 2.11736e-20)
(1.35086 0.249324 0)
(1.33577 0.237519 -3.38806e-20)
(1.31822 0.224358 -2.98588e-20)
(1.30072 0.210901 -2.5685e-20)
(1.28412 0.197614 9.06406e-22)
(1.26859 0.184696 2.97817e-20)
(1.25407 0.172238 0)
(1.24045 0.160292 -3.13437e-20)
(1.22763 0.148898 0)
(1.21555 0.138101 0)
(1.20415 0.127798 1.12555e-20)
(1.19339 0.118181 2.78587e-20)
(0.156447 0.00255788 -3.43796e-20)
(0.482806 0.0524331 1.85698e-22)
(0.796741 0.125973 5.16531e-21)
(1.04938 0.196568 0)
(1.2187 0.246869 3.14837e-20)
(1.31148 0.273703 -2.76235e-20)
(1.34917 0.281617 0)
(1.35426 0.277342 -1.87144e-20)
(1.34339 0.266573 -2.41543e-21)
(1.32643 0.252977 1.6363e-20)
(1.30817 0.238493 2.87566e-20)
(1.29052 0.224002 0)
(1.27401 0.209862 0)
(1.25868 0.196215 -1.95275e-20)
(1.24443 0.183124 0)
(1.23112 0.17062 0)
(1.21865 0.158734 0)
(1.20695 0.147485 0)
(1.19596 0.136752 -5.94767e-22)
(1.1856 0.126953 5.57005e-22)
(-0.00136143 0.0775697 -1.44158e-20)
(-0.00551866 0.180564 3.7248e-21)
(-0.0134261 0.247706 5.46059e-24)
(-0.024603 0.287643 -3.46637e-21)
(-0.0377927 0.308692 2.70836e-20)
(-0.0516679 0.317816 -2.63085e-20)
(-0.0650667 0.319799 0)
(-0.0771013 0.317179 -2.81331e-20)
(-0.0871225 0.31069 2.99546e-21)
(-0.0946453 0.299874 2.39554e-20)
(-0.0992875 0.283662 4.70008e-20)
(-0.100745 0.260793 0)
(-0.0987976 0.230114 0)
(-0.0933363 0.190758 -4.71223e-20)
(-0.0843665 0.142277 2.62255e-21)
(-0.0719968 0.0846904 0)
(-0.05643 0.0185351 0)
(-0.0378068 -0.0551747 0)
(-0.0165942 -0.1347 2.12335e-21)
(0.00827026 -0.218273 -1.97648e-21)
(-0.00397862 0.0774877 1.44082e-20)
(-0.00929093 0.182194 0)
(-0.015827 0.251713 -5.86197e-20)
(-0.0241777 0.293765 0)
(-0.0338347 0.316198 -2.7071e-20)
(-0.0438023 0.325854 1.29627e-20)
(-0.053035 0.327599 1.28214e-20)
(-0.060633 0.324119 2.50202e-20)
(-0.0658857 0.316291 0)
(-0.0682538 0.303764 -9.76126e-20)
(-0.0673416 0.285547 -4.78035e-20)
(-0.0628849 0.260455 4.69654e-20)
(-0.0547638 0.227417 6.88826e-22)
(-0.0430064 0.185652 2.22085e-20)
(-0.027778 0.134794 0)
(-0.00933897 0.0749158 -8.81896e-20)
(0.011978 0.00656613 0)
(0.0360057 -0.069278 0)
(0.061788 -0.150919 1.09422e-19)
(0.0919643 -0.236732 3.37784e-20)
(-0.00652215 0.0762227 -5.93655e-20)
(-0.0130937 0.181421 0)
(-0.0183393 0.252818 5.85678e-20)
(-0.0238074 0.296918 0)
(-0.0297151 0.320865 0)
(-0.0354294 0.331227 -2.70493e-20)
(-0.0400618 0.332869 5.2469e-20)
(-0.0427388 0.328614 -1.28662e-19)
(-0.0427213 0.3195 5.10789e-20)
(-0.0394433 0.30533 -9.97123e-20)
(-0.0325197 0.285241 4.97157e-20)
(-0.0217426 0.258163 8.95854e-22)
(-0.00709786 0.223134 -4.94141e-20)
(0.0112493 0.179478 9.47699e-20)
(0.0329934 0.126905 1.85887e-19)
(0.057758 0.0655246 8.7866e-20)
(0.0850947 -0.00414081 0)
(0.114952 -0.0812472 8.02205e-20)
(0.145645 -0.164108 -7.39763e-20)
(0.182277 -0.251242 -1.34695e-19)
(-0.00888893 0.0738659 5.93535e-20)
(-0.0167879 0.17831 0)
(-0.020881 0.250981 -2.9789e-20)
(-0.0235122 0.296961 2.87111e-20)
(-0.0255687 0.322487 1.11803e-19)
(-0.0267979 0.333705 -1.08786e-19)
(-0.0265118 0.335394 1.06278e-19)
(-0.0239103 0.330481 2.59857e-19)
(-0.0182657 0.320182 -5.03469e-20)
(-0.00901604 0.30449 -1.24188e-21)
(0.00419337 0.28271 1.99538e-19)
(0.0214986 0.253923 -9.71171e-20)
(0.0428145 0.217289 1.94216e-19)
(0.067861 0.172243 -1.88038e-19)
(0.0962201 0.118553 -1.84966e-19)
(0.127462 0.0563255 -1.84197e-19)
(0.161045 -0.0139853 -8.75262e-20)
(0.19724 -0.0916855 -1.48391e-22)
(0.233263 -0.175175 7.60896e-20)
(0.277715 -0.262867 0)
(-0.010991 0.0705421 -3.01633e-20)
(-0.0202453 0.173003 -1.25607e-19)
(-0.0233802 0.246247 -3.00067e-20)
(-0.0233257 0.293816 -2.69867e-22)
(-0.0215523 0.3209 -1.67538e-19)
(-0.0181911 0.333087 1.63478e-19)
(-0.0127952 0.334976 -1.58809e-19)
(-0.00468929 0.329555 -3.13101e-19)
(0.00679755 0.318221 -1.0414e-19)
(0.0221898 0.301176 9.74601e-20)
(0.0417928 0.277929 -1.00553e-19)
(0.065668 0.247733 -2.99067e-19)
(0.0936416 0.209891 2.92134e-19)
(0.125351 0.16393 0)
(0.160316 0.109658 -2.86229e-19)
(0.198125 0.0471434 8.7716e-20)
(0.238171 -0.0232663 3.50316e-19)
(0.281285 -0.100977 -3.29017e-19)
(0.323126 -0.184609 -1.53878e-19)
(0.376707 -0.271977 1.36074e-19)
(-0.0127611 0.0664098 -3.04474e-20)
(-0.023358 0.165708 9.43962e-20)
(-0.0257708 0.238744 -1.21328e-19)
(-0.0232803 0.287493 1.16056e-19)
(-0.0178234 0.316012 5.62175e-20)
(-0.00989945 0.329224 2.74343e-19)
(0.000664687 0.331456 -5.29833e-20)
(0.0143692 0.325702 2.08779e-19)
(0.0317797 0.31352 -2.0597e-19)
(0.053348 0.295335 0)
(0.0793121 0.270875 0)
(0.109662 0.239585 9.67773e-20)
(0.144157 0.20091 -1.99209e-19)
(0.182395 0.154457 -1.01778e-19)
(0.223894 0.100048 5.69945e-19)
(0.26836 0.037682 -3.67884e-19)
(0.315136 -0.0324461 5.2443e-19)
(0.365826 -0.109704 0)
(0.414061 -0.193113 4.54043e-19)
(0.477817 -0.279243 1.35305e-19)
(-0.0141566 0.0616572 -1.84863e-19)
(-0.0260455 0.156712 6.38444e-20)
(-0.0280002 0.228694 -6.35919e-22)
(-0.0234065 0.278089 2.34725e-19)
(-0.0145296 0.307801 -5.67863e-20)
(-0.00220255 0.322012 -1.64475e-19)
(0.0134547 0.324694 0)
(0.032723 0.318785 2.09244e-19)
(0.0560157 0.30597 -1.04362e-19)
(0.0836769 0.286887 9.99203e-20)
(0.115862 0.26149 -1.02104e-19)
(0.1525 0.229415 -3.65118e-21)
(0.193314 0.190245 9.62965e-20)
(0.237925 0.143654 1.89748e-19)
(0.285916 0.0894414 5.65667e-19)
(0.337241 0.0275188 0)
(0.391189 -0.0421014 -5.21076e-19)
(0.450232 -0.118524 1.62152e-19)
(0.505562 -0.201362 0)
(0.580067 -0.285178 -5.41711e-19)
(-0.0151642 0.056491 -6.66054e-22)
(-0.0282639 0.146359 -3.20531e-19)
(-0.0300331 0.216412 2.44989e-19)
(-0.0237287 0.265802 -2.93837e-19)
(-0.0117949 0.296333 0)
(0.00465355 0.311415 0)
(0.0252012 0.314595 0)
(0.049877 0.308686 -6.07307e-22)
(0.0789024 0.295458 2.05517e-19)
(0.112484 0.275734 2.01647e-19)
(0.150688 0.249679 0)
(0.193398 0.217112 0)
(0.240356 0.177739 0)
(0.291281 0.131275 -9.65783e-19)
(0.345916 0.0774703 -3.81298e-19)
(0.404576 0.0161641 1.77332e-19)
(0.466462 -0.0528157 0)
(0.534738 -0.128016 3.17958e-19)
(0.597882 -0.209796 -5.85225e-19)
(0.68287 -0.289929 5.36172e-19)
(-0.0157995 0.0511244 4.36038e-19)
(-0.0300064 0.135033 2.56979e-19)
(-0.031852 0.202285 0)
(-0.024259 0.250927 -1.18061e-19)
(-0.00970314 0.281776 1.13558e-19)
(0.0104854 0.297481 -2.1923e-19)
(0.0356109 0.301121 0)
(0.0654346 0.295321 -2.08727e-19)
(0.099961 0.281879 0)
(0.139243 0.261762 -2.01759e-19)
(0.183263 0.235317 2.01998e-19)
(0.231902 0.202524 -1.92681e-19)
(0.284986 0.163184 0)
(0.342431 0.11703 -1.89042e-19)
(0.404275 0.0637455 1.80817e-19)
(0.471172 0.0031643 0)
(0.542112 -0.0650153 -3.33604e-19)
(0.620403 -0.138464 1.15604e-21)
(0.691736 -0.218385 2.87442e-19)
(0.785573 -0.293101 2.50583e-19)
(-0.0161067 0.0457655 -6.18579e-20)
(-0.0313057 0.123141 -6.44016e-20)
(-0.0334571 0.186765 1.86102e-19)
(-0.0249896 0.233853 2.36952e-19)
(-0.00827751 0.264405 -1.13763e-19)
(0.0152074 0.280364 1.09451e-19)
(0.0445231 0.284321 -2.13357e-19)
(0.0791698 0.278666 1.0277e-19)
(0.118932 0.265162 4.03918e-19)
(0.163718 0.244871 0)
(0.213457 0.218279 0)
(0.268093 0.185489 -3.85978e-19)
(0.327627 0.146367 5.74671e-19)
(0.392306 0.100651 1.91769e-19)
(0.462463 0.0479644 1.81433e-19)
(0.538936 -0.0117346 -1.69183e-19)
(0.620155 -0.0787433 3.19893e-19)
(0.708654 -0.149606 -1.81928e-21)
(0.787593 -0.22643 -2.65008e-19)
(0.886801 -0.293762 0)
(-0.0161551 0.0406077 -2.5043e-19)
(-0.0322283 0.111088 -2.59596e-19)
(-0.0348603 0.170337 -2.47865e-19)
(-0.0258818 0.215049 2.37179e-19)
(-0.00745708 0.244606 1.13828e-19)
(0.0188754 0.260337 -1.09402e-19)
(0.0519791 0.264361 2.12524e-19)
(0.0911269 0.258797 0)
(0.135914 0.24532 -8.0567e-19)
(0.186143 0.225027 3.93111e-19)
(0.241762 0.198494 -1.98054e-19)
(0.302864 0.165904 9.5709e-19)
(0.369735 0.127159 -3.77898e-19)
(0.442993 0.0820099 0)
(0.523095 0.0300961 0)
(0.610599 -0.0283486 -3.33895e-19)
(0.70279 -0.0934238 -5.36231e-21)
(0.800379 -0.160493 -2.93044e-19)
(0.884727 -0.232591 1.79557e-20)
(0.983968 -0.290709 0)
(-0.0160323 0.0358163 2.51218e-19)
(-0.0328656 0.0992476 2.60009e-19)
(-0.0360752 0.153496 -2.48781e-19)
(-0.0268503 0.19504 -4.75486e-19)
(-0.00706882 0.222866 0)
(0.0217365 0.23781 1.0961e-19)
(0.0583037 0.241558 -1.05253e-19)
(0.101744 0.235944 2.06761e-19)
(0.151531 0.222513 2.04072e-19)
(0.207448 0.202342 -5.93359e-19)
(0.269554 0.176045 3.01938e-21)
(0.33818 0.143842 -1.91466e-19)
(0.413977 0.105674 -1.85635e-19)
(0.497689 0.0613375 1.65418e-19)
(0.589481 0.0106156 6.67523e-19)
(0.688845 -0.0458379 -3.16479e-19)
(0.79125 -0.107765 2.92624e-19)
(0.894868 -0.169574 5.51381e-19)
(0.980562 -0.23522 1.30014e-20)
(1.07338 -0.282932 2.29297e-19)
(-0.0158379 0.0315256 6.24738e-20)
(-0.0333188 0.0879558 -6.54717e-20)
(-0.0370984 0.136719 -6.23037e-19)
(-0.0277404 0.174384 -1.18684e-19)
(-0.00679264 0.19976 1.13736e-19)
(0.0242863 0.213325 -2.18735e-19)
(0.0641966 0.216399 -3.14365e-19)
(0.111986 0.210535 2.05474e-19)
(0.167116 0.19712 -1.96838e-19)
(0.229459 0.17717 0)
(0.299272 0.151286 -5.75297e-19)
(0.377203 0.119723 2.89321e-21)
(0.463998 0.0824527 -1.74975e-19)
(0.560081 0.039417 6.91552e-19)
(0.664565 -0.00933993 -3.16169e-19)
(0.774994 -0.0626803 -1.22636e-18)
(0.884627 -0.119957 1.14921e-18)
(0.989213 -0.175109 -2.59644e-19)
(1.07082 -0.232929 1.07356e-20)
(1.15103 -0.270062 2.1756e-19)
(-0.0156706 0.0278257 4.40579e-19)
(-0.0336763 0.0774745 0)
(-0.0378846 0.120434 2.50097e-19)
(-0.0283012 0.153638 2.38845e-19)
(-0.00612705 0.175925 0)
(0.0273199 0.187555 -5.4514e-19)
(0.0708056 0.189556 7.36967e-19)
(0.12344 0.183233 2.02193e-19)
(0.184799 0.169803 0)
(0.254942 0.150188 -1.94569e-19)
(0.33438 0.124972 -5.17672e-21)
(0.423816 0.0944191 8.94687e-19)
(0.52362 0.0585936 -3.42571e-19)
(0.633116 0.0176466 -3.27605e-19)
(0.749501 -0.0280532 3.18423e-19)
(0.86781 -0.0769655 1.78224e-20)
(0.979407 -0.128183 -8.29531e-19)
(1.07868 -0.175754 2.52929e-19)
(1.15061 -0.225121 0)
(1.21381 -0.252579 3.87361e-19)
(-0.0156178 0.0247628 -1.88342e-19)
(-0.0339915 0.0679975 3.93916e-19)
(-0.0383182 0.105007 -2.51159e-19)
(-0.0281544 0.133334 -1.20412e-19)
(-0.00435722 0.15203 1.13626e-19)
(0.0319632 0.161265 1.2873e-21)
(0.0797522 0.161868 -4.18722e-19)
(0.138311 0.154932 -4.06515e-19)
(0.207431 0.141514 0)
(0.28739 0.122447 -1.91183e-19)
(0.378724 0.0982784 -1.81958e-19)
(0.481692 0.0692986 -5.22427e-19)
(0.595523 0.0356999 1.73013e-19)
(0.717564 -0.00215064 6.90616e-21)
(0.842554 -0.0436025 0)
(0.963212 -0.0869394 -2.62815e-19)
(1.07016 -0.131194 2.62196e-19)
(1.15805 -0.171021 -2.30891e-19)
(1.21597 -0.212178 -2.17375e-19)
(1.26046 -0.231666 3.65656e-19)
(-0.0157416 0.0223307 6.36242e-20)
(-0.0342582 0.0596219 1.31414e-19)
(-0.0381911 0.0907104 -1.32175e-22)
(-0.0267817 0.113945 1.2101e-19)
(-0.000557752 0.128733 -2.29447e-19)
(0.0396432 0.13528 8.76633e-19)
(0.0930483 0.134294 4.20894e-19)
(0.159238 0.126716 4.03311e-19)
(0.238231 0.113468 0)
(0.330321 0.0952995 0)
(0.435561 0.0727151 5.3157e-19)
(0.553027 0.0460416 5.11249e-19)
(0.679959 0.0155753 0)
(0.811165 -0.0181814 3.12004e-19)
(0.939114 -0.0544357 -5.71914e-19)
(1.05527 -0.0915747 1.9086e-20)
(1.15117 -0.128705 -7.29301e-19)
(1.22319 -0.161408 3.02504e-20)
(1.26503 -0.195282 2.05879e-19)
(1.29177 -0.208862 0)
(-0.0160679 0.0204736 -2.53017e-19)
(-0.0343967 0.0523575 -2.63682e-19)
(-0.0371935 0.0777173 1.25804e-19)
(-0.0235317 0.0958507 1.20466e-19)
(0.00636696 0.106634 4.61496e-19)
(0.051985 0.110402 1.95189e-22)
(0.112886 0.107828 0)
(0.188917 0.0997527 -6.01887e-19)
(0.280136 0.0869996 -5.71731e-19)
(0.38636 0.0702262 1.84035e-19)
(0.506453 0.0498897 -6.97668e-19)
(0.637492 0.026308 -1.65637e-19)
(0.774177 -0.000204338 3.1231e-19)
(0.908917 -0.0291545 0)
(1.03292 -0.0597747 5.64729e-19)
(1.13799 -0.0907692 5.24479e-19)
(1.21815 -0.121309 4.81445e-19)
(1.27223 -0.148084 4.35781e-19)
(1.29835 -0.175911 -7.38587e-19)
(1.3102 -0.185629 2.20808e-20)
(-0.0165788 0.0190882 -6.36052e-20)
(-0.0342475 0.0461191 -1.32031e-19)
(-0.0349241 0.0660853 1.51224e-21)
(-0.0176625 0.0793155 -1.20413e-19)
(0.0175831 0.0862235 -9.28245e-19)
(0.0706199 0.0873497 -4.42385e-19)
(0.141305 0.0834014 0)
(0.229568 0.075172 3.9817e-19)
(0.335044 0.0633918 1.87967e-19)
(0.456403 0.0486187 7.16367e-19)
(0.590541 0.0312105 -3.36342e-19)
(0.73198 0.0113797 -4.81312e-19)
(0.87296 -0.0106685 2.97425e-19)
(1.00443 -0.03459 -5.6571e-19)
(1.11788 -0.0597524 5.24711e-19)
(1.20701 -0.0852421 2.42316e-19)
(1.26918 -0.110171 -2.27392e-19)
(1.30563 -0.132471 0)
(1.31825 -0.155336 7.19201e-19)
(1.31883 -0.16309 -6.44564e-19)
(-0.0172082 0.0180362 0)
(-0.0335747 0.0407439 -2.68184e-19)
(-0.0309139 0.0557626 -2.57436e-19)
(-0.00840402 0.0644704 2.46008e-19)
(0.0341995 0.0678479 4.66763e-19)
(0.0969541 0.0666943 6.66878e-19)
(0.179828 0.0618023 -2.10085e-19)
(0.282407 0.0539388 -1.97926e-19)
(0.403275 0.0437331 1.85879e-19)
(0.539205 0.0315891 -9.90056e-22)
(0.684548 0.0176651 5.02177e-19)
(0.831279 0.00194694 4.75952e-19)
(0.970003 -0.0155807 -3.00009e-19)
(1.09169 -0.0347846 5.59236e-19)
(1.18961 -0.0551818 -2.66918e-19)
(1.26039 -0.0761544 -6.98191e-19)
(1.30472 -0.0966379 2.09156e-19)
(1.32562 -0.115839 7.59938e-19)
(1.32786 -0.134321 -1.76698e-19)
(1.32045 -0.142238 2.98222e-19)
(-0.0178437 0.0171548 1.29004e-19)
(-0.0320853 0.036008 2.68529e-19)
(-0.0246773 0.0466075 2.5799e-19)
(0.00493898 0.0513363 -2.46779e-19)
(0.0570924 0.0517309 1.17138e-19)
(0.131918 0.0488719 -5.54652e-19)
(0.22912 0.0436544 0)
(0.347362 0.0368051 0)
(0.483446 0.0288006 0)
(0.631629 0.0197924 -3.47311e-19)
(0.783605 0.00962382 0)
(0.929481 -0.00203346 0)
(1.05959 -0.015446 -2.89304e-19)
(1.16645 -0.0306466 0)
(1.24617 -0.0472361 0)
(1.29856 -0.0647228 4.58775e-19)
(1.32692 -0.0818753 -4.17183e-19)
(1.33536 -0.0989074 -3.75744e-19)
(1.33018 -0.11317 3.16524e-19)
(1.31696 -0.12446 -3.02428e-19)
(0.0326804 -0.296829 0)
(0.0544241 -0.369573 -1.75849e-21)
(0.0767756 -0.436075 1.72753e-21)
(0.0978104 -0.494419 1.96596e-22)
(0.116199 -0.5439 -1.52254e-21)
(0.130721 -0.584504 1.48596e-21)
(0.140219 -0.616971 1.45407e-22)
(0.144033 -0.64252 1.31346e-22)
(0.142572 -0.662009 9.22857e-22)
(0.137816 -0.674996 -1.13241e-21)
(0.133387 -0.679074 1.02261e-21)
(0.133846 -0.67011 -8.10656e-22)
(0.143324 -0.643578 -7.93056e-22)
(0.164128 -0.596397 1.72851e-22)
(0.196136 -0.5282 9.96979e-22)
(0.237337 -0.441301 0)
(0.284927 -0.339675 0)
(0.336217 -0.227842 2.12901e-22)
(0.389022 -0.110265 2.15259e-22)
(0.44167 0.00876957 0)
(0.492892 0.1249 0)
(0.54166 0.23363 -5.61332e-22)
(0.586953 0.330544 1.57472e-21)
(0.627666 0.411897 -8.12584e-22)
(0.66276 0.475384 0)
(0.691499 0.520629 -1.18857e-22)
(0.713596 0.549192 -4.07764e-22)
(0.729195 0.564131 4.02847e-22)
(0.738782 0.569156 4.13981e-22)
(0.743231 0.567562 -3.26526e-22)
(0.74368 0.561702 0)
(0.740891 0.553762 7.09344e-23)
(0.734489 0.547122 0)
(0.723095 0.546081 0)
(0.705758 0.552857 7.48376e-23)
(0.683672 0.56379 0)
(0.660707 0.568326 -8.69312e-23)
(0.642111 0.552574 1.92493e-22)
(0.632247 0.505485 0)
(0.633125 0.423434 2.42e-22)
(0.644484 0.310733 2.94144e-23)
(0.664706 0.177217 -5.09895e-22)
(0.691519 0.0353153 0)
(0.722331 -0.102254 0)
(0.754377 -0.22436 -2.03401e-22)
(0.784922 -0.323272 6.34173e-22)
(0.81165 -0.395697 1.81719e-22)
(0.833041 -0.442764 2.93197e-22)
(0.848424 -0.468993 -2.89297e-22)
(0.857836 -0.480469 2.26899e-22)
(0.861984 -0.482687 -2.24463e-22)
(0.862088 -0.479387 0)
(0.859168 -0.473528 -9.05355e-23)
(0.853112 -0.469239 0)
(0.842632 -0.471522 0)
(0.826518 -0.48239 0)
(0.805245 -0.4965 9.08864e-23)
(0.781424 -0.501006 -1.15787e-22)
(0.758673 -0.480966 -2.58351e-23)
(0.740059 -0.426508 2.38024e-22)
(0.727583 -0.336634 0)
(0.722502 -0.21855 0)
(0.725456 -0.0848463 1.47265e-22)
(0.736193 0.0496655 0)
(0.753349 0.171152 0)
(0.774425 0.269872 0)
(0.796294 0.341836 0)
(0.81629 0.38816 0)
(0.832924 0.413205 0)
(0.845391 0.423636 1.43578e-22)
(0.852519 0.42822 1.31814e-22)
(0.852675 0.435592 -1.30059e-22)
(0.844969 0.449293 -1.26148e-22)
(0.830394 0.463865 1.35184e-22)
(0.811547 0.466467 1.35798e-23)
(0.791295 0.443531 -1.46412e-22)
(0.772002 0.387227 0)
(0.755864 0.29779 0)
(0.745157 0.182548 0)
(0.741691 0.0538922 -2.12237e-22)
(0.746143 -0.0733463 0)
(0.757855 -0.185168 0)
(0.774896 -0.271822 1.57355e-22)
(0.794137 -0.33054 -1.35709e-22)
(0.811368 -0.366315 0)
(0.822095 -0.389007 0)
(0.823292 -0.406889 0)
(0.814804 -0.420694 9.12725e-23)
(0.799003 -0.423101 0)
(0.779192 -0.403819 -9.66738e-23)
(0.758571 -0.355627 0)
(0.740366 -0.277369 -6.04607e-23)
(0.727934 -0.174264 6.05544e-23)
(0.723994 -0.0570286 6.16367e-23)
(0.729596 0.0603396 -3.6653e-24)
(0.743419 0.164564 -5.08492e-24)
(0.76151 0.247518 -4.94512e-23)
(0.778137 0.308291 -3.93269e-23)
(0.787997 0.350748 3.87068e-23)
(0.788477 0.378109 0)
(0.780297 0.388922 -1.36755e-22)
(0.766359 0.377405 0)
(0.750248 0.337251 0)
(0.735639 0.265862 0)
(0.726091 0.167121 1.38813e-22)
(0.724221 0.0519362 1.85715e-22)
(0.730526 -0.0642725 -1.69452e-22)
(0.742568 -0.166994 3.87546e-23)
(0.755197 -0.247948 0)
(0.762751 -0.305764 0)
(0.762333 -0.341028 -1.01387e-22)
(0.75501 -0.35121 -1.2072e-23)
(0.743963 -0.331048 2.43905e-23)
(0.732438 -0.277086 -1.10712e-22)
(0.723617 -0.19157 1.32983e-23)
(0.720328 -0.0837446 -1.33266e-23)
(0.723473 0.0319185 1.20307e-23)
(0.730439 0.140214 -1.17442e-23)
(0.736572 0.230132 0)
(0.738064 0.293903 0)
(0.735052 0.32555 1.2453e-22)
(0.728876 0.317679 0)
(0.721926 0.269605 0)
(0.714704 0.183809 0)
(0.710458 0.0732845 0)
(0.706796 -0.0418066 1.29418e-22)
(0.705533 -0.156816 9.90216e-23)
(0.699169 -0.214371 0)
(0.696941 -0.289707 0)
(0.684394 -0.205569 -1.54433e-23)
(0.118357 -0.316031 -5.20065e-22)
(0.1385 -0.388515 0)
(0.159361 -0.45412 4.45494e-22)
(0.178661 -0.51059 -1.95365e-22)
(0.19496 -0.557077 5.44477e-22)
(0.207183 -0.593597 1.97803e-20)
(0.214113 -0.621097 -1.91747e-21)
(0.214662 -0.641353 -1.78483e-20)
(0.208403 -0.656298 0)
(0.196277 -0.666903 -2.11421e-22)